
  ___ ___ ___ _ _ _  
 |   |   |_  | | | | 
 | | | | | . | | | | 
 |__ |  _|___|_____|  1.3.0
 |___|_|             

User:   kasto@hebbe13-10
Date:   Wed Feb  7 23:54:36 2018
Arch:   x86_64
Pid:    13957
Python: 2.7.14
gpaw:   /apps/Hebbe/software/MPI/intel/2017.4.196-GCC-6.4.0-2.28/impi/2017.3.196/GPAW/1.3.0-Python-2.7.14/lib/python2.7/site-packages/gpaw
_gpaw:  /apps/Hebbe/software/MPI/intel/2017.4.196-GCC-6.4.0-2.28/impi/2017.3.196/GPAW/1.3.0-Python-2.7.14/bin/
       gpaw-python
ase:    /apps/Hebbe/software/MPI/intel/2017.4.196-GCC-6.4.0-2.28/impi/2017.3.196/ASE/3.15.0-Python-2.7.14/lib/python2.7/site-packages/ase-3.15.0-py2.7.egg/ase (version 3.15.0)
numpy:  /apps/Hebbe/software/MPI/intel/2017.4.196-GCC-6.4.0-2.28/impi/2017.3.196/Python/2.7.14/lib/python2.7/site-packages/numpy-1.13.1-py2.7-linux-x86_64.egg/numpy (version 1.13.1)
scipy:  /apps/Hebbe/software/MPI/intel/2017.4.196-GCC-6.4.0-2.28/impi/2017.3.196/Python/2.7.14/lib/python2.7/site-packages/scipy-0.19.1-py2.7-linux-x86_64.egg/scipy (version 0.19.1)
units:  Angstrom and eV
cores:  20

Input parameters:
  h: 0.18
  kpts: [12 12  1]
  mixer: {backend: pulay,
          beta: 0.1,
          method: separate,
          nmaxold: 5,
          weight: 50.0}
  mode: {ecut: 500.0,
         name: pw}
  xc: PBE

System changes: positions, numbers, cell, pbc, initial_charges, initial_magmoms 

Initialize ...

Al-setup:
  name: Aluminium
  id: 0292cae29f5d6237e50f6abdd43a7bdd
  Z: 13
  valence: 3
  core: 10
  charge: 0.0
  file: /c3se/apps/Glenn/gpaw/gpaw-setups-0.9.11271/Al.PBE.gz
  cutoffs: 1.08(comp), 1.91(filt), 2.36(core), lmax=2
  valence states:
                energy  radius
    3s(2.00)    -7.753   1.085
    3p(1.00)    -2.712   1.085
    *s          19.459   1.085
    *p          24.499   1.085
    *d           0.000   1.085

  Using partial waves for Al as LCAO basis

Reference energy: -66034.232649

Spin-paired calculation

Occupation numbers:
  Fermi-Dirac: width=0.1000 eV

Convergence criteria:
  Maximum total energy change: 0.0005 eV / electron
  Maximum integral of absolute density change: 0.0001 electrons
  Maximum integral of absolute eigenstate change: 4e-08 eV^2
  Maximum number of iterations: 333

Symmetries present (total): 6

  ( 1  0  0)  ( 1 -1  0)  ( 0  1  0)  ( 0 -1  0)  (-1  1  0)  (-1  0  0)
  ( 0  1  0)  ( 0 -1  0)  ( 1  0  0)  ( 1 -1  0)  (-1  0  0)  (-1  1  0)
  ( 0  0  1)  ( 0  0  1)  ( 0  0  1)  ( 0  0  1)  ( 0  0  1)  ( 0  0  1)
Note: your k-points are not as symmetric as your crystal!

144 k-points: 12 x 12 x 1 Monkhorst-Pack grid
42 k-points in the irreducible part of the Brillouin zone
       k-points in crystal coordinates                weights
   0:     0.04166667   -0.04166667    0.00000000          2/144
   1:     0.04166667    0.04166667    0.00000000          2/144
   2:     0.12500000   -0.12500000    0.00000000          2/144
   3:     0.12500000   -0.04166667    0.00000000          4/144
   4:     0.12500000    0.04166667    0.00000000          4/144
   5:     0.12500000    0.12500000    0.00000000          2/144
   6:     0.20833333   -0.20833333    0.00000000          2/144
   7:     0.20833333   -0.12500000    0.00000000          4/144
   8:     0.20833333   -0.04166667    0.00000000          4/144
   9:     0.20833333    0.04166667    0.00000000          4/144
          ...
  41:     0.45833333    0.45833333    0.00000000          2/144

Wave functions: Plane wave expansion
  Cutoff energy: 500.000 eV
  Number of coefficients (min, max): 6413, 6517
  Using FFTW library
  Eigensolver: None  MatrixOperator buffer_size: default value or 
                              see value of nblock in input file
Diagonalizer layout: Serial LAPACKOrthonormalizer layout: Serial LAPACK 

Davidson(niter=1, smin=None, normalize=True) 

Densities:
  Coarse grid: 14*14*200 grid
  Fine grid: 28*28*400 grid
  Total Charge: 0.000000 

Density mixing:
  Method: separate
  Backend: pulay
  Linear mixing parameter: 0.1
  Mixing with 5 old densities
  Damping of long wave oscillations: 50 

Hamiltonian:
  XC and Coulomb potentials evaluated on a 28*28*400 grid
  Using the PBE Exchange-Correlation functional
 

Memory estimate:
  Process memory now: 147.62 MiB
  Calculator: 40.26 MiB
    Density: 16.59 MiB
      Arrays: 7.78 MiB
      Localized functions: 5.83 MiB
      Mixer: 2.99 MiB
    Hamiltonian: 5.20 MiB
      Arrays: 5.08 MiB
      XC: 0.00 MiB
      Poisson: 0.00 MiB
      vbar: 0.12 MiB
    Wavefunctions: 18.47 MiB
      Arrays psit_nG: 7.96 MiB
      Eigensolver: 0.74 MiB
      Projections: 0.16 MiB
      Projectors: 5.51 MiB
      Overlap op: 2.02 MiB
      PW-descriptor: 2.09 MiB

Total number of cores used: 20
Parallelization over k-points: 5
Parallelization over states: 4

Number of atoms: 10
Number of atomic orbitals: 40
Number of bands in calculation: 40
Bands to converge: occupied states only
Number of valence electrons: 30

... initialized

Initializing position-dependent things.

Density initialized from atomic densities
Creating initial wave functions:
  40 bands from LCAO basis set

                    
                    
                    
                    
       Al           
                    
        Al          
                    
                    
                    
           Al       
                    
                    
       Al           
                    
        Al          
                    
                    
           Al       
                    
                    
                    
       Al           
                    
        Al          
                    
                    
           Al       
                    
                    
       Al           
                    
                    
                    
                    

Positions:
   0 Al     0.000000    0.000000    7.500000
   1 Al     1.429309    0.825212    9.834052
   2 Al     0.000000    1.650424   12.168104
   3 Al     0.000000    0.000000   14.502157
   4 Al     1.429309    0.825212   16.836209
   5 Al     0.000000    1.650424   19.170261
   6 Al     0.000000    0.000000   21.504313
   7 Al     1.429309    0.825212   23.838365
   8 Al     0.000000    1.650424   26.172418
   9 Al     0.000000    0.000000   28.506470

Unit cell:
           periodic     x           y           z      points  spacing
  1. axis:    yes    2.858618    0.000000    0.000000    14     0.1768
  2. axis:    yes    1.429309    2.475636    0.000000    14     0.1768
  3. axis:    no     0.000000    0.000000   36.006470   200     0.1800

  Lengths:   2.858618   2.858618  36.006470
  Angles:   90.000000  90.000000  60.000000

Effective grid spacing dv^(1/3) = 0.1866

                     log10-error:    total        iterations:
           time      wfs    density  energy       fermi  poisson
iter:   1  23:54:40  +1.61   +inf   -36.491376    3             
iter:   2  23:54:42  -0.18   +inf   -36.826598    3             
iter:   3  23:54:43  -1.21   +inf   -36.861542    2             
iter:   4  23:54:45  -1.70  -0.89   -38.302463    33            
iter:   5  23:54:47  -2.25  -0.83   -37.720813    33            
iter:   6  23:54:49  -2.30  -0.87   -36.823296    31            
iter:   7  23:54:51  -2.06  -1.06   -36.716391    3             
iter:   8  23:54:53  -2.49  -1.42   -36.652784    3             
iter:   9  23:54:55  -2.91  -1.84   -36.638238    3             
iter:  10  23:54:57  -3.12  -2.09   -36.633513    3             
iter:  11  23:54:59  -3.50  -2.37   -36.648822    3             
iter:  12  23:55:01  -3.86  -1.94   -36.632614    3             
iter:  13  23:55:03  -4.20  -2.64   -36.632667    2             
iter:  14  23:55:05  -4.46  -2.66   -36.638200    2             
iter:  15  23:55:07  -4.75  -2.15   -36.632634    2             
iter:  16  23:55:09  -4.88  -2.76   -36.632507    2             
iter:  17  23:55:11  -5.13  -2.97   -36.633184    3             
iter:  18  23:55:13  -5.31  -2.62   -36.632538    3             
iter:  19  23:55:15  -5.40  -3.11   -36.632529    2             
iter:  20  23:55:17  -5.72  -3.22   -36.633229    2             
iter:  21  23:55:19  -6.02  -2.61   -36.632567    2             
iter:  22  23:55:21  -6.00  -3.17   -36.632517    2             
iter:  23  23:55:23  -6.40  -3.39   -36.632535    2             
iter:  24  23:55:25  -6.55  -3.37   -36.632511    2             
iter:  25  23:55:27  -6.64  -3.51   -36.632506    2             
iter:  26  23:55:29  -6.98  -3.62   -36.632543    2             
iter:  27  23:55:31  -7.26  -3.22   -36.632520    2             
iter:  28  23:55:32  -7.41  -3.41   -36.632503    2             
iter:  29  23:55:34  -7.59  -3.73   -36.632523    2             
iter:  30  23:55:36  -7.85  -3.48   -36.632503    2             
iter:  31  23:55:38  -8.15  -3.94   -36.632505    2             
iter:  32  23:55:40  -8.35  -4.05   -36.632506    2             

Converged after 32 iterations.

Dipole moment: (-0.000000, -0.000000, 0.000057) |e|*Ang

Energy contributions relative to reference atoms: (reference = -66034.232649)

Kinetic:        +33.326723
Potential:      -15.796814
External:        +0.000000
XC:             -54.028016
Entropy (-ST):   -0.141794
Local:           -0.063503
--------------------------
Free energy:    -36.703403
Extrapolated:   -36.632506

Fermi level: 3.26243

Warning: Showing only first 2 kpts
 Kpt  Band  Eigenvalues  Occupancy
  0    13      3.36156    0.00752
  0    14      4.73194    0.00000
  0    15      5.98759    0.00000
  0    16      6.82649    0.00000

  1    13      3.28498    0.01233
  1    14      4.65659    0.00000
  1    15      5.91237    0.00000
  1    16      6.74682    0.00000


System changes: positions, cell 

Initialize ...

Al-setup:
  name: Aluminium
  id: 0292cae29f5d6237e50f6abdd43a7bdd
  Z: 13
  valence: 3
  core: 10
  charge: 0.0
  file: /c3se/apps/Glenn/gpaw/gpaw-setups-0.9.11271/Al.PBE.gz
  cutoffs: 1.08(comp), 1.91(filt), 2.36(core), lmax=2
  valence states:
                energy  radius
    3s(2.00)    -7.753   1.085
    3p(1.00)    -2.712   1.085
    *s          19.459   1.085
    *p          24.499   1.085
    *d           0.000   1.085

  Using partial waves for Al as LCAO basis

Reference energy: -66034.232649

Spin-paired calculation

Occupation numbers:
  Fermi-Dirac: width=0.1000 eV

Convergence criteria:
  Maximum total energy change: 0.0005 eV / electron
  Maximum integral of absolute density change: 0.0001 electrons
  Maximum integral of absolute eigenstate change: 4e-08 eV^2
  Maximum number of iterations: 333

Symmetries present (total): 8

  ( 1  0  0)  ( 1  0  0)  ( 0  1  0)  ( 0  1  0)  ( 0 -1  0)  ( 0 -1  0)
  ( 0  1  0)  ( 0 -1  0)  ( 1  0  0)  (-1  0  0)  ( 1  0  0)  (-1  0  0)
  ( 0  0  1)  ( 0  0  1)  ( 0  0  1)  ( 0  0  1)  ( 0  0  1)  ( 0  0  1)

  (-1  0  0)  (-1  0  0)
  ( 0  1  0)  ( 0 -1  0)
  ( 0  0  1)  ( 0  0  1)

144 k-points: 12 x 12 x 1 Monkhorst-Pack grid
21 k-points in the irreducible part of the Brillouin zone
       k-points in crystal coordinates                weights
   0:     0.04166667    0.04166667    0.00000000          4/144
   1:     0.12500000    0.04166667    0.00000000          8/144
   2:     0.12500000    0.12500000    0.00000000          4/144
   3:     0.20833333    0.04166667    0.00000000          8/144
   4:     0.20833333    0.12500000    0.00000000          8/144
   5:     0.20833333    0.20833333    0.00000000          4/144
   6:     0.29166667    0.04166667    0.00000000          8/144
   7:     0.29166667    0.12500000    0.00000000          8/144
   8:     0.29166667    0.20833333    0.00000000          8/144
   9:     0.29166667    0.29166667    0.00000000          4/144
          ...
  20:     0.45833333    0.45833333    0.00000000          4/144

Wave functions: Plane wave expansion
  Cutoff energy: 500.000 eV
  Number of coefficients (min, max): 6843, 6943
  Using FFTW library
  Eigensolver: None  MatrixOperator buffer_size: default value or 
                              see value of nblock in input file
Diagonalizer layout: Serial LAPACKOrthonormalizer layout: Serial LAPACK 

Davidson(niter=1, smin=None, normalize=True) 

Densities:
  Coarse grid: 16*16*189 grid
  Fine grid: 32*32*378 grid
  Total Charge: 0.000000 

Density mixing:
  Method: separate
  Backend: pulay
  Linear mixing parameter: 0.1
  Mixing with 5 old densities
  Damping of long wave oscillations: 50 

Hamiltonian:
  XC and Coulomb potentials evaluated on a 32*32*378 grid
  Using the PBE Exchange-Correlation functional
 

Memory estimate:
  Process memory now: 228.27 MiB
  Calculator: 44.99 MiB
    Density: 22.58 MiB
      Arrays: 9.60 MiB
      Localized functions: 9.29 MiB
      Mixer: 3.69 MiB
    Hamiltonian: 6.46 MiB
      Arrays: 6.28 MiB
      XC: 0.00 MiB
      Poisson: 0.00 MiB
      vbar: 0.19 MiB
    Wavefunctions: 15.95 MiB
      Arrays psit_nG: 4.24 MiB
      Eigensolver: 0.77 MiB
      Projections: 0.08 MiB
      Projectors: 7.35 MiB
      Overlap op: 0.87 MiB
      PW-descriptor: 2.63 MiB

Total number of cores used: 20
Parallelization over k-points: 2
Parallelization over states: 10

Number of atoms: 10
Number of atomic orbitals: 40
Number of bands in calculation: 40
Bands to converge: occupied states only
Number of valence electrons: 30

... initialized

Initializing position-dependent things.

Density initialized from atomic densities
Creating initial wave functions:
  40 bands from LCAO basis set

   .------.  
  /|      |  
 * |      |  
 | |      |  
 | |      |  
 | |      |  
 | |      |  
 | |      |  
 | |      |  
 | |      |  
 | |      |  
 Al|      |  
 | |      |  
 | | Al   |  
 | |      |  
 | |      |  
 Al|      |  
 | |      |  
 | | Al   |  
 | |      |  
 | |      |  
 Al|      |  
 | |      |  
 | | Al   |  
 | |      |  
 | |      |  
 Al|      |  
 | |      |  
 | | Al   |  
 | |      |  
 | |      |  
 Al|      |  
 | |      |  
 | | Al   |  
 | |      |  
 | |      |  
 | |      |  
 | |      |  
 | |      |  
 | |      |  
 | |      |  
 | .------.  
 |/      /   
 *------*    

Positions:
   0 Al     1.429309    1.429309    7.500000
   1 Al     0.000000    0.000000    9.521348
   2 Al     1.429309    1.429309   11.542697
   3 Al     0.000000    0.000000   13.564045
   4 Al     1.429309    1.429309   15.585394
   5 Al     0.000000    0.000000   17.606742
   6 Al     1.429309    1.429309   19.628091
   7 Al     0.000000    0.000000   21.649439
   8 Al     1.429309    1.429309   23.670788
   9 Al     0.000000    0.000000   25.692136

Unit cell:
           periodic     x           y           z      points  spacing
  1. axis:    yes    2.858618    0.000000    0.000000    16     0.1787
  2. axis:    yes    0.000000    2.858618    0.000000    16     0.1787
  3. axis:    no     0.000000    0.000000   33.192136   189     0.1756

  Lengths:   2.858618   2.858618  33.192136
  Angles:   90.000000  90.000000  90.000000

Effective grid spacing dv^(1/3) = 0.1776

                     log10-error:    total        iterations:
           time      wfs    density  energy       fermi  poisson
iter:   1  23:55:46  +1.60   +inf   -36.250686    2             
iter:   2  23:55:47  -0.18   +inf   -36.583672    2             
iter:   3  23:55:48  -1.21   +inf   -36.617749    2             
iter:   4  23:55:50  -1.71  -0.89   -37.691172    33            
iter:   5  23:55:52  -2.24  -0.85   -37.018071    33            
iter:   6  23:55:54  -2.26  -0.91   -36.419317    32            
iter:   7  23:55:57  -2.08  -1.13   -36.434461    4             
iter:   8  23:55:59  -2.38  -1.47   -36.378877    3             
iter:   9  23:56:01  -2.88  -1.94   -36.371851    3             
iter:  10  23:56:03  -3.13  -2.11   -36.373743    3             
iter:  11  23:56:05  -3.47  -2.15   -36.368706    3             
iter:  12  23:56:07  -3.81  -2.50   -36.368327    2             
iter:  13  23:56:09  -4.05  -2.65   -36.368351    2             
iter:  14  23:56:11  -4.31  -2.74   -36.374002    2             
iter:  15  23:56:13  -4.57  -2.14   -36.368314    2             
iter:  16  23:56:15  -4.81  -2.92   -36.368364    2             
iter:  17  23:56:17  -5.06  -2.93   -36.368597    3             
iter:  18  23:56:19  -5.05  -2.73   -36.368328    2             
iter:  19  23:56:21  -5.28  -3.29   -36.368321    2             
iter:  20  23:56:24  -5.55  -3.36   -36.368532    2             
iter:  21  23:56:26  -5.83  -2.85   -36.368326    2             
iter:  22  23:56:28  -5.88  -3.41   -36.368330    2             
iter:  23  23:56:30  -6.30  -3.46   -36.368384    2             
iter:  24  23:56:32  -6.40  -3.08   -36.368321    2             
iter:  25  23:56:34  -6.76  -3.69   -36.368318    2             
iter:  26  23:56:36  -6.98  -3.81   -36.368321    2             
iter:  27  23:56:38  -7.23  -3.64   -36.368338    1             
iter:  28  23:56:40  -7.48  -3.36   -36.368316    2             
iter:  29  23:56:42  -7.79  -4.23   -36.368314    2             

Converged after 29 iterations.

Dipole moment: (-0.000000, -0.000000, 0.000052) |e|*Ang

Energy contributions relative to reference atoms: (reference = -66034.232649)

Kinetic:        +32.754099
Potential:      -15.714706
External:        +0.000000
XC:             -53.272858
Entropy (-ST):   -0.153603
Local:           -0.058046
--------------------------
Free energy:    -36.445115
Extrapolated:   -36.368314

Fermi level: 2.72683

Warning: Showing only first 2 kpts
 Kpt  Band  Eigenvalues  Occupancy
  0    13      5.41157    0.00000
  0    14      6.39288    0.00000
  0    15      6.86992    0.00000
  0    16      7.10032    0.00000

  1    13      4.86983    0.00000
  1    14      5.11851    0.00000
  1    15      5.38137    0.00000
  1    16      5.73690    0.00000


System changes: positions, numbers, cell, initial_magmoms, initial_charges 

Initialize ...

Al-setup:
  name: Aluminium
  id: 0292cae29f5d6237e50f6abdd43a7bdd
  Z: 13
  valence: 3
  core: 10
  charge: 0.0
  file: /c3se/apps/Glenn/gpaw/gpaw-setups-0.9.11271/Al.PBE.gz
  cutoffs: 1.08(comp), 1.91(filt), 2.36(core), lmax=2
  valence states:
                energy  radius
    3s(2.00)    -7.753   1.085
    3p(1.00)    -2.712   1.085
    *s          19.459   1.085
    *p          24.499   1.085
    *d           0.000   1.085

  Using partial waves for Al as LCAO basis

C-setup:
  name: Carbon
  id: 4aa54d4b901d75f77cc0ea3eec22967b
  Z: 6
  valence: 4
  core: 2
  charge: 0.0
  file: /c3se/apps/Glenn/gpaw/gpaw-setups-0.9.11271/C.PBE.gz
  cutoffs: 0.64(comp), 1.14(filt), 1.14(core), lmax=2
  valence states:
                energy  radius
    2s(2.00)   -13.751   0.635
    2p(2.00)    -5.284   0.635
    *s          13.461   0.635
    *p          21.927   0.635
    *d           0.000   0.635

  Using partial waves for C as LCAO basis

O-setup:
  name: Oxygen
  id: 32ecd46bf208036f09c70b0ec9a88b78
  Z: 8
  valence: 6
  core: 2
  charge: 0.0
  file: /c3se/apps/Glenn/gpaw/gpaw-setups-0.9.11271/O.PBE.gz
  cutoffs: 0.67(comp), 1.17(filt), 0.83(core), lmax=2
  valence states:
                energy  radius
    2s(2.00)   -23.961   0.688
    2p(4.00)    -9.029   0.598
    *s           3.251   0.688
    *p          18.182   0.598
    *d           0.000   0.619

  Using partial waves for O as LCAO basis

Reference energy: -69102.713065

Spin-paired calculation

Occupation numbers:
  Fermi-Dirac: width=0.1000 eV

Convergence criteria:
  Maximum total energy change: 0.0005 eV / electron
  Maximum integral of absolute density change: 0.0001 electrons
  Maximum integral of absolute eigenstate change: 4e-08 eV^2
  Maximum number of iterations: 333

Symmetries present (total): 6

  ( 1  0  0)  ( 1 -1  0)  ( 0  1  0)  ( 0 -1  0)  (-1  1  0)  (-1  0  0)
  ( 0  1  0)  ( 0 -1  0)  ( 1  0  0)  ( 1 -1  0)  (-1  0  0)  (-1  1  0)
  ( 0  0  1)  ( 0  0  1)  ( 0  0  1)  ( 0  0  1)  ( 0  0  1)  ( 0  0  1)
Note: your k-points are not as symmetric as your crystal!

144 k-points: 12 x 12 x 1 Monkhorst-Pack grid
42 k-points in the irreducible part of the Brillouin zone
       k-points in crystal coordinates                weights
   0:     0.04166667   -0.04166667    0.00000000          2/144
   1:     0.04166667    0.04166667    0.00000000          2/144
   2:     0.12500000   -0.12500000    0.00000000          2/144
   3:     0.12500000   -0.04166667    0.00000000          4/144
   4:     0.12500000    0.04166667    0.00000000          4/144
   5:     0.12500000    0.12500000    0.00000000          2/144
   6:     0.20833333   -0.20833333    0.00000000          2/144
   7:     0.20833333   -0.12500000    0.00000000          4/144
   8:     0.20833333   -0.04166667    0.00000000          4/144
   9:     0.20833333    0.04166667    0.00000000          4/144
          ...
  41:     0.45833333    0.45833333    0.00000000          2/144

Wave functions: Plane wave expansion
  Cutoff energy: 500.000 eV
  Number of coefficients (min, max): 6413, 6517
  Using FFTW library
  Eigensolver: None  MatrixOperator buffer_size: default value or 
                              see value of nblock in input file
Diagonalizer layout: Serial LAPACKOrthonormalizer layout: Serial LAPACK 

Davidson(niter=1, smin=None, normalize=True) 

Densities:
  Coarse grid: 14*14*200 grid
  Fine grid: 28*28*400 grid
  Total Charge: 0.000000 

Density mixing:
  Method: separate
  Backend: pulay
  Linear mixing parameter: 0.1
  Mixing with 5 old densities
  Damping of long wave oscillations: 50 

Hamiltonian:
  XC and Coulomb potentials evaluated on a 28*28*400 grid
  Using the PBE Exchange-Correlation functional
 

Memory estimate:
  Process memory now: 252.89 MiB
  Calculator: 49.46 MiB
    Density: 19.56 MiB
      Arrays: 7.78 MiB
      Localized functions: 8.80 MiB
      Mixer: 2.99 MiB
    Hamiltonian: 5.32 MiB
      Arrays: 5.08 MiB
      XC: 0.00 MiB
      Poisson: 0.00 MiB
      vbar: 0.24 MiB
    Wavefunctions: 24.58 MiB
      Arrays psit_nG: 9.55 MiB
      Eigensolver: 0.85 MiB
      Projections: 0.23 MiB
      Projectors: 9.44 MiB
      Overlap op: 2.43 MiB
      PW-descriptor: 2.09 MiB

Total number of cores used: 20
Parallelization over k-points: 5
Parallelization over states: 4

Number of atoms: 12
Number of atomic orbitals: 48
Number of bands in calculation: 48
Bands to converge: occupied states only
Number of valence electrons: 40

