
  ___ ___ ___ _ _ _  
 |   |   |_  | | | | 
 | | | | | . | | | | 
 |__ |  _|___|_____|  1.3.0
 |___|_|             

User:   analbin@hebbe21-9
Date:   Mon Feb 19 21:34:41 2018
Arch:   x86_64
Pid:    8580
Python: 2.7.14
gpaw:   /apps/Hebbe/software/MPI/intel/2017.4.196-GCC-6.4.0-2.28/impi/2017.3.196/GPAW/1.3.0-Python-2.7.14/lib/python2.7/site-packages/gpaw
_gpaw:  /apps/Hebbe/software/MPI/intel/2017.4.196-GCC-6.4.0-2.28/impi/2017.3.196/GPAW/1.3.0-Python-2.7.14/bin/
       gpaw-python
ase:    /apps/Hebbe/software/MPI/intel/2017.4.196-GCC-6.4.0-2.28/impi/2017.3.196/ASE/3.15.0-Python-2.7.14/lib/python2.7/site-packages/ase-3.15.0-py2.7.egg/ase (version 3.15.0)
numpy:  /apps/Hebbe/software/MPI/intel/2017.4.196-GCC-6.4.0-2.28/impi/2017.3.196/Python/2.7.14/lib/python2.7/site-packages/numpy-1.13.1-py2.7-linux-x86_64.egg/numpy (version 1.13.1)
scipy:  /apps/Hebbe/software/MPI/intel/2017.4.196-GCC-6.4.0-2.28/impi/2017.3.196/Python/2.7.14/lib/python2.7/site-packages/scipy-0.19.1-py2.7-linux-x86_64.egg/scipy (version 0.19.1)
units:  Angstrom and eV
cores:  20

Input parameters:
  h: 0.18
  kpts: [16 16  1]
  mixer: {backend: pulay,
          beta: 0.1,
          method: separate,
          nmaxold: 5,
          weight: 50.0}
  mode: {ecut: 350.0,
         name: pw}
  xc: PBE

System changes: positions, numbers, cell, pbc, initial_charges, initial_magmoms 

Initialize ...

Al-setup:
  name: Aluminium
  id: 0292cae29f5d6237e50f6abdd43a7bdd
  Z: 13
  valence: 3
  core: 10
  charge: 0.0
  file: /c3se/apps/Glenn/gpaw/gpaw-setups-0.9.11271/Al.PBE.gz
  cutoffs: 1.08(comp), 1.91(filt), 2.36(core), lmax=2
  valence states:
                energy  radius
    3s(2.00)    -7.753   1.085
    3p(1.00)    -2.712   1.085
    *s          19.459   1.085
    *p          24.499   1.085
    *d           0.000   1.085

  Using partial waves for Al as LCAO basis

C-setup:
  name: Carbon
  id: 4aa54d4b901d75f77cc0ea3eec22967b
  Z: 6
  valence: 4
  core: 2
  charge: 0.0
  file: /c3se/apps/Glenn/gpaw/gpaw-setups-0.9.11271/C.PBE.gz
  cutoffs: 0.64(comp), 1.14(filt), 1.14(core), lmax=2
  valence states:
                energy  radius
    2s(2.00)   -13.751   0.635
    2p(2.00)    -5.284   0.635
    *s          13.461   0.635
    *p          21.927   0.635
    *d           0.000   0.635

  Using partial waves for C as LCAO basis

O-setup:
  name: Oxygen
  id: 32ecd46bf208036f09c70b0ec9a88b78
  Z: 8
  valence: 6
  core: 2
  charge: 0.0
  file: /c3se/apps/Glenn/gpaw/gpaw-setups-0.9.11271/O.PBE.gz
  cutoffs: 0.67(comp), 1.17(filt), 0.83(core), lmax=2
  valence states:
                energy  radius
    2s(2.00)   -23.961   0.688
    2p(4.00)    -9.029   0.598
    *s           3.251   0.688
    *p          18.182   0.598
    *d           0.000   0.619

  Using partial waves for O as LCAO basis

Reference energy: -95516.406125

Spin-paired calculation

Occupation numbers:
  Fermi-Dirac: width=0.1000 eV

Convergence criteria:
  Maximum total energy change: 0.0005 eV / electron
  Maximum integral of absolute density change: 0.0001 electrons
  Maximum integral of absolute eigenstate change: 4e-08 eV^2
  Maximum number of iterations: 333

Symmetries present (total): 6

  ( 1  0  0)  ( 1 -1  0)  ( 0  1  0)  ( 0 -1  0)  (-1  1  0)  (-1  0  0)
  ( 0  1  0)  ( 0 -1  0)  ( 1  0  0)  ( 1 -1  0)  (-1  0  0)  (-1  1  0)
  ( 0  0  1)  ( 0  0  1)  ( 0  0  1)  ( 0  0  1)  ( 0  0  1)  ( 0  0  1)
Note: your k-points are not as symmetric as your crystal!

256 k-points: 16 x 16 x 1 Monkhorst-Pack grid
72 k-points in the irreducible part of the Brillouin zone
       k-points in crystal coordinates                weights
   0:     0.03125000   -0.03125000    0.00000000          2/256
   1:     0.03125000    0.03125000    0.00000000          2/256
   2:     0.09375000   -0.09375000    0.00000000          2/256
   3:     0.09375000   -0.03125000    0.00000000          4/256
   4:     0.09375000    0.03125000    0.00000000          4/256
   5:     0.09375000    0.09375000    0.00000000          2/256
   6:     0.15625000   -0.15625000    0.00000000          2/256
   7:     0.15625000   -0.09375000    0.00000000          4/256
   8:     0.15625000   -0.03125000    0.00000000          4/256
   9:     0.15625000    0.03125000    0.00000000          4/256
          ...
  71:     0.46875000    0.46875000    0.00000000          2/256

Wave functions: Plane wave expansion
  Cutoff energy: 350.000 eV
  Number of coefficients (min, max): 6282, 6517
  Using FFTW library
  Eigensolver: None  MatrixOperator buffer_size: default value or 
                              see value of nblock in input file
Diagonalizer layout: Serial LAPACKOrthonormalizer layout: Serial LAPACK 

Davidson(niter=1, smin=None, normalize=True) 

Densities:
  Coarse grid: 14*14*336 grid
  Fine grid: 28*28*672 grid
  Total Charge: 0.000000 

Density mixing:
  Method: separate
  Backend: pulay
  Linear mixing parameter: 0.1
  Mixing with 5 old densities
  Damping of long wave oscillations: 50 

Hamiltonian:
  XC and Coulomb potentials evaluated on a 28*28*672 grid
  Using the PBE Exchange-Correlation functional
 

Memory estimate:
  Process memory now: 109.79 MiB
  Calculator: 81.68 MiB
    Density: 32.83 MiB
      Arrays: 13.06 MiB
      Localized functions: 14.75 MiB
      Mixer: 5.02 MiB
    Hamiltonian: 8.94 MiB
      Arrays: 8.54 MiB
      XC: 0.00 MiB
      Poisson: 0.00 MiB
      vbar: 0.39 MiB
    Wavefunctions: 39.91 MiB
      Arrays psit_nG: 19.09 MiB
      Eigensolver: 7.49 MiB
      Projections: 0.61 MiB
      Projectors: 3.56 MiB
      Overlap op: 6.43 MiB
      PW-descriptor: 2.73 MiB

Total number of cores used: 20
Parallelization over k-points: 20

Number of atoms: 16
Number of atomic orbitals: 64
Number of bands in calculation: 64
Bands to converge: occupied states only
Number of valence electrons: 52

... initialized

Initializing position-dependent things.

Density initialized from atomic densities
Creating initial wave functions:
  64 bands from LCAO basis set

                    
                    
                    
                    
       O            
                    
       C            
       Al           
                    
        Al          
                    
                    
           Al       
                    
                    
                    
       Al           
                    
        Al          
                    
                    
           Al       
                    
                    
       Al           
                    
        Al          
                    
                    
                    
           Al       
                    
                    
       Al           
                    
        Al          
                    
                    
           Al       
                    
                    
                    
       Al           
                    
        Al          
                    
                    
                    
                    

Positions:
   0 Al     0.000000    1.650788   15.000000
   1 Al     0.000000    0.000000   17.334567
   2 Al     1.429625    0.825394   19.669135
   3 Al     0.000000    1.650788   22.003702
   4 Al     0.000000    0.000000   24.338269
   5 Al     1.429625    0.825394   26.672837
   6 Al     0.000000    1.650788   29.007404
   7 Al     0.000000    0.000000   31.341972
   8 Al     1.429625    0.825394   33.676539
   9 Al     0.000000    1.650788   36.011106
  10 Al     0.000000    0.000000   38.345674
  11 Al     1.429625    0.825394   40.680241
  12 Al     0.000000    1.650788   43.014808
  13 Al     0.000000    0.000000   45.349376
  14 C      0.000000    0.000000   46.349376
  15 O      0.000000    0.000000   47.477376

Unit cell:
           periodic     x           y           z      points  spacing
  1. axis:    yes    2.859249    0.000000    0.000000    14     0.1769
  2. axis:    yes    1.429625    2.476183    0.000000    14     0.1769
  3. axis:    no     0.000000    0.000000   60.349376   336     0.1796

  Lengths:   2.859249   2.859249  60.349376
  Angles:   90.000000  90.000000  60.000000

Effective grid spacing dv^(1/3) = 0.1865

                     log10-error:    total        iterations:
           time      wfs    density  energy       fermi  poisson
iter:   1  21:34:50  +1.75   +inf  -285.069706    2             
iter:   2  21:34:52  +0.37   +inf  -288.164160    3             
iter:   3  21:34:54  -0.68   +inf  -288.438193    3             
iter:   4  21:34:59  +3.18  -0.11  -9296.190801    37            
iter:   5  21:35:03  +3.07  +0.06  -4612.441899    31            
iter:   6  21:35:07  +1.70  +0.11  -1786.488689    38            
iter:   7  21:35:11  +1.74  +0.03    15.778872    35            
iter:   8  21:35:15  +2.23  +0.10  -256.402308    31            
iter:   9  21:35:19  +3.27  +0.00  -3053.691656    36            
iter:  10  21:35:23  +2.29  +0.13  -631.529065    34            
iter:  11  21:35:27  +1.84  +0.03    40.960741    37            
iter:  12  21:35:31  +2.80  -0.15  -1007.023569    37            
iter:  13  21:35:35  +1.85  -0.03  -195.980322    38            
iter:  14  21:35:39  +1.68  -0.01  -224.488895    33            
iter:  15  21:35:43  +1.70  -0.05  -153.871011    3             
iter:  16  21:35:47  +1.28  -0.10   -84.134624    34            
iter:  17  21:35:51  +1.94  -0.32  -591.947925    31            
iter:  18  21:35:55  +2.86  +0.04  -3858.875223    37            
iter:  19  21:35:59  +1.75  +0.08  -1463.704385    37            
iter:  20  21:36:03  +1.01  +0.06  -1129.286240    34            
iter:  21  21:36:07  +1.04  +0.03  -805.962625    35            
iter:  22  21:36:11  +2.45  +0.10  -1040.749944    32            
iter:  23  21:36:15  +3.86  +0.02  -5014.098988    33            
iter:  24  21:36:19  +3.04  +0.07  -3376.615371    34            
iter:  25  21:36:23  +2.43  +0.08  -2149.543708    35            
iter:  26  21:36:27  +1.99  +0.05  -1537.340411    37            
iter:  27  21:36:31  +2.85  +0.03  -2326.494291    35            
iter:  28  21:36:35  +3.54  +0.06  -2823.402726    38            
iter:  29  21:36:39  +2.65  +0.03  -737.951542    38            
iter:  30  21:36:43  +2.53  -0.07    15.134486    38            
iter:  31  21:36:47  +3.21  -0.03  -1616.508034    36            
iter:  32  21:36:51  +2.70  +0.07  -331.760394    36            
iter:  33  21:36:55  +2.47  -0.08  -625.351633    36            
iter:  34  21:36:59  +2.29  -0.08  -553.068224    34            
iter:  35  21:37:03  +2.51  -0.05  -1794.960192    38            
iter:  36  21:37:07  +1.99  -0.02  -1469.971488    35            
iter:  37  21:37:11  +1.65  +0.05  -598.084749    34            
iter:  38  21:37:15  +3.25  +0.01  -4427.414446    36            
iter:  39  21:37:19  +2.75  +0.11  -1003.290103    37            
iter:  40  21:37:23  +2.54  +0.08  -491.494660    29            
iter:  41  21:37:27  +2.51  +0.03   232.427244    31            
iter:  42  21:37:31  +2.53  -0.06    36.342728    31            
iter:  43  21:37:35  +2.84  -0.19  -777.010281    32            
iter:  44  21:37:39  +1.98  +0.03  -228.502079    37            
iter:  45  21:37:43  +2.06  -0.20  -461.923817    34            
iter:  46  21:37:47  +1.65  -0.08  -378.372636    33            
iter:  47  21:37:51  +1.21  -0.12  -266.188399    34            
iter:  48  21:37:55  +1.78  -0.14  -724.187689    35            
iter:  49  21:37:59  +1.42  -0.01  -926.138211    36            
iter:  50  21:38:03  +2.22  +0.07  -646.517715    4             
iter:  51  21:38:07  +1.58  -0.08  -264.714636    37            
iter:  52  21:38:11  +1.34  -0.14  -278.612538    33            
iter:  53  21:38:15  +2.65  -0.12  -2944.505739    35            
iter:  54  21:38:19  +1.36  +0.11  -177.283871    38            
iter:  55  21:38:23  +1.66  -0.14   -47.767571    32            
iter:  56  21:38:28  +2.19  -0.14  -650.621604    38            
iter:  57  21:38:32  +2.11  -0.07  -495.182288    36            
iter:  58  21:38:36  +1.96  -0.14  -662.315354    36            
iter:  59  21:38:40  +2.01  -0.15   -15.494986    37            
iter:  60  21:38:44  +3.00  -0.02  -2265.122464    37            
iter:  61  21:38:48  +2.07  +0.13  -123.019567    35            
iter:  62  21:38:52  +2.31  -0.27  -355.654966    35            
iter:  63  21:38:56  +1.88  -0.19  -231.983809    34            
iter:  64  21:39:00  +1.90  -0.23  -584.686349    34            
iter:  65  21:39:04  +1.48  -0.07  -170.857824    34            
iter:  66  21:39:08  +2.69  -0.33  -3234.823001    31            
iter:  67  21:39:12  +1.52  +0.15  -571.446817    34            
iter:  68  21:39:16  +0.95  -0.04  -218.432198    32            
iter:  69  21:39:20  +1.45  -0.17  -759.476532    36            
iter:  70  21:39:24  +1.92  +0.09  -438.470818    32            
iter:  71  21:39:28  +3.16  -0.04  -1771.400598    37            
iter:  72  21:39:32  +2.57  +0.03  -909.737667    34            
iter:  73  21:39:36  +1.81  -0.03  -305.138792    33            
iter:  74  21:39:40  +1.34  -0.13  -243.957753    35            
iter:  75  21:39:44  +2.44  -0.26  -1554.136294    36            
iter:  76  21:39:48  +2.70  +0.07  -1235.736249    35            
iter:  77  21:39:52  +2.43  +0.13  -278.264798    35            
iter:  78  21:39:56  +1.90  +0.01    33.484447    34            
iter:  79  21:40:00  +2.41  -0.29  -692.059333    37            
iter:  80  21:40:04  +2.56  +0.01  -1093.951028    33            
iter:  81  21:40:08  +2.26  +0.03  -464.337603    30            
iter:  82  21:40:12  +1.71  -0.11   -48.126737    35            
iter:  83  21:40:16  +1.58  -0.43   -20.676104    29            
iter:  84  21:40:20  +2.26  -0.50  -924.074398    34            
iter:  85  21:40:24  +1.84  +0.01  -593.637498    36            
iter:  86  21:40:28  +2.11  -0.10  -851.541955    34            
iter:  87  21:40:32  +1.24  -0.04  -339.315373    35            
iter:  88  21:40:36  +1.17  -0.14  -331.724658    35            
iter:  89  21:40:40  +0.47  -0.16  -127.317465    35            
iter:  90  21:40:44  +2.24  -0.30  -1132.475432    28            
iter:  91  21:40:48  +2.52  +0.03  -1139.976842    37            
iter:  92  21:40:52  +2.09  +0.05  -953.884720    32            
iter:  93  21:40:56  +0.98  +0.09  -150.640397    34            
iter:  94  21:41:00  +2.61  -0.14  -2310.092589    37            
iter:  95  21:41:04  +2.08  +0.04  -383.596542    39            
iter:  96  21:41:08  +1.39  -0.07   228.629127    35            
iter:  97  21:41:12  +1.36  -0.18   -53.180114    37            
iter:  98  21:41:16  +3.06  -0.24  -4821.191420    36            
iter:  99  21:41:20  +2.52  +0.13  -1289.110891    37            
iter: 100  21:41:24  +1.99  +0.11  -675.808388    37            
iter: 101  21:41:28  +1.32  +0.08   344.491168    37            
iter: 102  21:41:32  +1.89  -0.06   265.018760    34            
iter: 103  21:41:36  +3.78  -0.09  -8076.626161    36            
iter: 104  21:41:40  +3.15  +0.05  -2997.331778    39            
iter: 105  21:41:44  +2.32  +0.05  -1794.403956    38            
iter: 106  21:41:48  +1.85  +0.02  -1094.186529    38            
iter: 107  21:41:52  +1.27  +0.02   306.391394    39            
iter: 108  21:41:56  +3.29  -0.03  -6235.917805    35            
iter: 109  21:42:00  +3.73  +0.14  -5107.980008    34            
iter: 110  21:42:04  +3.07  +0.03  -3722.269835    36            
iter: 111  21:42:08  +2.79  +0.07  -3660.195956    3             
iter: 112  21:42:12  +2.49  +0.09  -4255.002315    37            
iter: 113  21:42:16  +3.40  +0.14   271.298134    33            
iter: 114  21:42:20  +4.48  +0.08  -12463.691982    37            
iter: 115  21:42:24  +3.72  +0.10  -5335.408894    36            
iter: 116  21:42:28  +2.76  +0.06  -1295.815354    40            
iter: 117  21:42:32  +2.58  -0.01   342.862369    37            
iter: 118  21:42:36  +2.59  +0.00  -2062.703784    33            
iter: 119  21:42:40  +3.62  -0.04  -3448.364872    36            
iter: 120  21:42:44  +3.08  +0.10  -3952.986632    36            
iter: 121  21:42:48  +2.74  +0.13  -4096.349170    37            
iter: 122  21:42:52  +2.48  +0.15  -4250.125671    36            
iter: 123  21:42:56  +2.36  +0.16  -1558.308613    37            
iter: 124  21:43:00  +3.86  +0.20  -7331.629591    35            
iter: 125  21:43:04  +4.22  +0.07  -4571.314903    38            
iter: 126  21:43:08  +3.15  -0.10  -2664.784466    34            
iter: 127  21:43:12  +2.56  -0.08  -1327.456773    39            
iter: 128  21:43:16  +2.59  -0.12  -1156.471761    39            
iter: 129  21:43:20  +3.74  +0.09  -6912.718747    33            
iter: 130  21:43:24  +3.67  +0.18  -6679.318554    37            
iter: 131  21:43:28  +2.44  +0.14  -1345.942301    35            
iter: 132  21:43:32  +2.20  +0.09  -542.903363    33            
iter: 133  21:43:36  +2.34  +0.05   450.843230    37            
iter: 134  21:43:40  +4.02  +0.06  -8176.945720    26            
iter: 135  21:43:44  +3.14  +0.05  -2689.468016    34            
iter: 136  21:43:48  +2.39  +0.02  -812.791733    34            
iter: 137  21:43:52  +2.15  -0.04   -20.231465    37            
iter: 138  21:43:56  +2.55  -0.06  -1606.973771    39            
iter: 139  21:44:00  +3.27  -0.05  -1817.764732    33            
iter: 140  21:44:04  +2.52  +0.08  -881.877617    32            
iter: 141  21:44:08  +2.38  +0.07  -778.517567    36            
iter: 142  21:44:12  +2.48  +0.03  -912.288734    33            
iter: 143  21:44:16  +3.26  -0.07  -3981.630947    35            
iter: 144  21:44:20  +2.34  +0.05  -1045.538777    38            
iter: 145  21:44:24  +1.62  -0.03  -514.551965    37            
iter: 146  21:44:28  +1.89  -0.20  -1528.445155    36            
iter: 147  21:44:32  +2.44  +0.07  -1295.711307    39            
iter: 148  21:44:36  +2.75  -0.03  -1021.123287    37            
iter: 149  21:44:40  +2.04  -0.04  -171.422053    33            
iter: 150  21:44:44  +1.78  -0.09  -113.322576    34            
iter: 151  21:44:48  +2.34  -0.13     2.424184    35            
iter: 152  21:44:52  +2.88  -0.09  -483.089644    38            
iter: 153  21:44:56  +2.31  -0.10  -451.394705    35            
iter: 154  21:45:00  +1.90  -0.04  -157.361262    36            
iter: 155  21:45:04  +1.85  -0.25  -182.602164    33            
iter: 156  21:45:08  +1.87  -0.16  -235.302737    34            
iter: 157  21:45:12  +1.56  -0.17  -494.853252    35            
iter: 158  21:45:16  +1.18  -0.11  -393.735453    36            
iter: 159  21:45:20  +2.21  -0.05  -1724.883405    37            
iter: 160  21:45:24  +1.46  +0.03  -329.386093    39            
iter: 161  21:45:28  +1.26  -0.07    96.248548    35            
iter: 162  21:45:32  +1.31  -0.32   102.192091    3             
iter: 163  21:45:36  +1.72  -0.37  -675.672971    34            
iter: 164  21:45:40  +2.55  +0.05  -547.482772    35            
iter: 165  21:45:44  +1.02  -0.07  -494.841181    38            
iter: 166  21:45:48  +1.57  -0.02  -179.456942    33            
iter: 167  21:45:52  +1.73  -0.27  -268.409578    37            
iter: 168  21:45:56  +1.77  -0.13  -910.662397    38            
iter: 169  21:46:00  +1.21  -0.11  -220.663196    37            
iter: 170  21:46:04  +0.84  -0.20  -220.157795    37            
iter: 171  21:46:08  +0.59  -0.21  -291.436045    36            
iter: 172  21:46:12  +2.91  -0.17  -5466.984197    36            
iter: 173  21:46:16  +1.98  +0.13  -848.758565    36            
iter: 174  21:46:20  +1.74  +0.06   391.266146    38            
iter: 175  21:46:24  +2.09  -0.09   137.379399    36            
iter: 176  21:46:28  +1.80  +0.01   202.484705    33            
iter: 177  21:46:32  +3.61  -0.21  -6191.725119    38            
iter: 178  21:46:36  +2.54  +0.07  -1292.539307    38            
iter: 179  21:46:40  +1.90  +0.04   280.920631    37            
iter: 180  21:46:44  +1.62  -0.04  -367.648608    36            
iter: 181  21:46:48  +1.96  -0.07   111.996859    35            
iter: 182  21:46:52  +2.57  -0.35  -704.514871    38            
iter: 183  21:46:56  +2.49  -0.03  -1005.009287    34            
iter: 184  21:47:00  +2.11  +0.07  -513.118760    33            
iter: 185  21:47:04  +1.79  +0.00    13.833156    36            
iter: 186  21:47:08  +2.37  -0.24  -229.021778    36            
iter: 187  21:47:12  +1.78  -0.32   -75.434389    35            
iter: 188  21:47:16  +1.84  -0.55  -432.027285    35            
iter: 189  21:47:20  +0.96  -0.05   -87.514165    37            
iter: 190  21:47:24  +1.62  -0.57  -984.154417    34            
iter: 191  21:47:28  +1.69  +0.03  -307.820780    36            
iter: 192  21:47:32  +1.00  -0.07  -112.486336    37            
iter: 193  21:47:36  +0.94  -0.34  -102.369426    34            
iter: 194  21:47:40  +0.69  -0.47  -223.439772    33            
iter: 195  21:47:44  +0.49  -0.16   -78.017397    31            
iter: 196  21:47:48  +1.52  -0.42  -880.071322    30            
iter: 197  21:47:52  +1.68  +0.04  -294.837936    35            
iter: 198  21:47:56  +0.89  -0.10   -80.806662    37            
iter: 199  21:48:00  +0.69  -0.46   -70.888243    30            
iter: 200  21:48:04  +1.13  -0.56  -387.645048    35            
iter: 201  21:48:08  +0.95  -0.05  -146.160140    32            
iter: 202  21:48:12  +1.07  -0.23  -609.374397    35            
iter: 203  21:48:16  +1.71  +0.02  -590.069902    36            
iter: 204  21:48:20  +0.40  -0.02   -67.444025    36            
iter: 205  21:48:25  +0.42  -0.48   -47.797365    34            
iter: 206  21:48:29  +1.13  -0.79  -427.781904    32            
iter: 207  21:48:33  -0.22  -0.01   -48.583207    36            
iter: 208  21:48:37  +0.31  -0.79  -167.374448    34            
iter: 209  21:48:41  -0.78  -0.19   -51.677632    32            
iter: 210  21:48:45  +0.86  -0.59  -507.606179    34            
iter: 211  21:48:49  +0.08  -0.00   -65.633428    36            
iter: 212  21:48:53  +0.16  -0.54  -102.807614    31            
iter: 213  21:48:57  -0.19  -0.33   -54.595501    35            
iter: 214  21:49:01  +1.17  -0.58  -425.792411    35            
iter: 215  21:49:05  -0.80  -0.03   -45.982385    36            
iter: 216  21:49:09  +0.75  -0.76  -228.094969    36            
iter: 217  21:49:13  -0.25  -0.11   -41.936478    35            
iter: 218  21:49:17  -0.19  -0.86   -86.029957    35            
iter: 219  21:49:21  -1.28  -0.40   -41.064261    34            
iter: 220  21:49:25  -1.10  -0.85   -47.323556    35            
iter: 221  21:49:29  -2.04  -0.58   -36.780477    33            
iter: 222  21:49:33  +0.17  -0.89  -287.689698    37            
iter: 223  21:49:37  -0.06  -0.07   -33.234554    37            
iter: 224  21:49:41  -0.07  -0.68  -154.703103    3             
iter: 225  21:49:45  -0.24  -0.17   -32.120147    33            
iter: 226  21:49:49  +0.92  -0.94  -323.033227    35            
iter: 227  21:49:53  -1.01  -0.06   -33.623303    33            
iter: 228  21:49:57  +1.19  -0.97  -456.151678    36            
iter: 229  21:50:01  -0.13  -0.02   -29.132791    36            
iter: 230  21:50:05  +0.09  -1.07  -102.227719    33            
iter: 231  21:50:09  -0.30  -0.31   -31.494854    32            
iter: 232  21:50:13  -0.24  -1.04   -52.872237    30            
iter: 233  21:50:17  -0.72  -0.50   -37.835184    3             
iter: 234  21:50:21  -1.66  -0.73   -62.308704    35            
iter: 235  21:50:25  -1.68  -0.46   -37.461987    36            
iter: 236  21:50:29  -1.88  -0.72   -39.576554    32            
iter: 237  21:50:33  -2.51  -0.68   -34.779156    33            
iter: 238  21:50:37  -2.53  -0.82   -38.281517    34            
iter: 239  21:50:40  -2.95  -0.74   -32.205179    3             
iter: 240  21:50:44  -2.52  -0.94   -39.689753    33            
iter: 241  21:50:48  -1.77  -0.68   -63.378482    36            
iter: 242  21:50:52  -2.37  -0.41   -33.057466    35            
iter: 243  21:50:56  -2.47  -0.89   -32.296094    34            
iter: 244  21:51:00  -2.17  -0.90   -42.814150    3             
iter: 245  21:51:04  -2.71  -0.64   -29.811121    33            
iter: 246  21:51:08  -2.91  -1.21   -37.487225    32            
iter: 247  21:51:12  -3.30  -0.76   -32.596143    33            
iter: 248  21:51:16  -3.76  -0.92   -30.358088    3             
iter: 249  21:51:20  -2.46  -1.15   -45.784332    3             
iter: 250  21:51:24  -2.80  -0.59   -33.547797    32            
iter: 251  21:51:28  -0.90  -0.86   -72.554285    34            
iter: 252  21:51:32  -2.04  -0.47   -32.320956    31            
iter: 253  21:51:36  -2.71  -0.94   -29.723335    29            
iter: 254  21:51:40  -3.30  -1.21   -29.839177    33            
iter: 255  21:51:44  -3.69  -1.15   -28.635952    3             
iter: 256  21:51:48  -3.90  -1.58   -29.525182    3             
iter: 257  21:51:52  -3.11  -1.18   -29.463034    33            
iter: 258  21:51:56  -3.69  -1.18   -28.689556    3             
iter: 259  21:52:00  -4.24  -1.55   -28.603620    2             
iter: 260  21:52:04  -3.37  -1.63   -33.493168    33            
iter: 261  21:52:08  -3.30  -0.86   -29.099266    32            
iter: 262  21:52:12  -4.24  -1.29   -28.570466    3             
iter: 263  21:52:16  -4.14  -1.65   -29.031425    3             
iter: 264  21:52:20  -4.17  -1.31   -28.614193    3             
iter: 265  21:52:24  -4.33  -1.54   -28.700328    3             
iter: 266  21:52:28  -3.06  -1.50   -30.411757    33            
iter: 267  21:52:32  -3.16  -1.07   -28.520555    34            
iter: 268  21:52:36  -4.14  -1.66   -28.756278    3             
iter: 269  21:52:40  -4.11  -1.42   -28.585010    34            
iter: 270  21:52:44  -4.54  -1.58   -28.511474    3             
iter: 271  21:52:48  -4.54  -1.71   -28.418706    3             
iter: 272  21:52:52  -3.93  -2.07   -28.400176    33            
iter: 273  21:52:56  -3.93  -2.35   -28.521437    3             
iter: 274  21:53:00  -4.76  -1.66   -28.428023    3             
iter: 275  21:53:04  -5.15  -1.93   -28.396914    3             
iter: 276  21:53:08  -6.13  -2.61   -28.397694    2             
iter: 277  21:53:12  -5.62  -2.51   -28.396504    3             
iter: 278  21:53:16  -5.84  -2.68   -28.400267    3             
iter: 279  21:53:20  -6.24  -2.36   -28.400621    3             
iter: 280  21:53:24  -4.95  -2.38   -28.483298    3             
iter: 281  21:53:28  -5.02  -1.81   -28.395792    3             
iter: 282  21:53:32  -6.02  -2.94   -28.395991    2             
iter: 283  21:53:36  -6.70  -2.80   -28.396373    2             
iter: 284  21:53:40  -7.41  -2.66   -28.395749    2             
iter: 285  21:53:44  -7.05  -2.95   -28.396004    3             
iter: 286  21:53:48  -6.28  -2.80   -28.398553    3             
iter: 287  21:53:52  -6.31  -2.50   -28.395913    3             
iter: 288  21:53:56  -6.58  -2.81   -28.397224    3             
iter: 289  21:54:00  -6.14  -2.60   -28.397021    3             
iter: 290  21:54:04  -6.45  -2.70   -28.397075    3             
iter: 291  21:54:08  -6.88  -2.69   -28.395683    2             
iter: 292  21:54:12  -5.94  -3.05   -28.406844    3             
iter: 293  21:54:16  -5.93  -2.23   -28.395687    3             
iter: 294  21:54:20  -6.52  -3.06   -28.395795    2             
iter: 295  21:54:24  -7.23  -2.96   -28.395708    2             
iter: 296  21:54:28  -7.74  -3.54   -28.395668    2             
iter: 297  21:54:32  -8.28  -3.87   -28.395593    2             
iter: 298  21:54:36  -8.09  -3.33   -28.395619    2             
iter: 299  21:54:40  -7.39  -3.61   -28.396145    2             
iter: 300  21:54:44  -7.52  -2.94   -28.395666    2             
iter: 301  21:54:48  -8.43  -4.09   -28.395643    2             

Converged after 301 iterations.

Dipole moment: (2.069183, 1.194643, -0.227624) |e|*Ang

Energy contributions relative to reference atoms: (reference = -95516.406125)

Kinetic:       +192.797049
Potential:     -115.059187
External:        +0.000000
XC:            -106.433425
Entropy (-ST):   -0.211597
Local:           +0.405719
--------------------------
Free energy:    -28.501442
Extrapolated:   -28.395643

Fermi level: 1.81404

Warning: Showing only first 2 kpts
 Kpt  Band  Eigenvalues  Occupancy
  0    24      3.37209    0.00000
  0    25      3.45167    0.00000
  0    26      3.78070    0.00000
  0    27      4.84358    0.00000

  1    24      3.44492    0.00000
  1    25      3.47446    0.00000
  1    26      3.73249    0.00000
  1    27      4.80073    0.00000



Forces in eV/Ang:
  0 Al    0.00000    0.00000   -0.05865
  1 Al    0.00000    0.00000    0.08328
  2 Al    0.00000    0.00000   -0.03267
  3 Al    0.00000    0.00000    0.00543
  4 Al    0.00000    0.00000    0.01740
  5 Al    0.00000    0.00000   -0.00022
  6 Al   -0.00000   -0.00000   -0.00195
  7 Al   -0.00000   -0.00000   -0.00341
  8 Al    0.00000    0.00000    0.00175
  9 Al   -0.00000   -0.00000    0.00926
 10 Al    0.00000   -0.00000   -0.02526
 11 Al    0.00000    0.00000    0.02062
 12 Al   -0.00000    0.00000   -0.03968
 13 Al    0.00000    0.00000 -135.07796
 14 C     0.00000    0.00000  124.57381
 15 O    -0.00000    0.00000   10.52034

System changes: positions 

Initializing position-dependent things.

Density initialized from wave functions
                    
                    
                    
                    
       O            
                    
       C            
       Al           
                    
        Al          
                    
                    
           Al       
                    
                    
                    
       Al           
                    
        Al          
                    
                    
           Al       
                    
                    
       Al           
                    
        Al          
                    
                    
                    
           Al       
                    
                    
       Al           
                    
        Al          
                    
                    
           Al       
                    
                    
                    
       Al           
                    
        Al          
                    
                    
                    
                    

Positions:
   0 Al     0.000000    1.650788   15.000000
   1 Al     0.000000    0.000000   17.334567
   2 Al     1.429625    0.825394   19.669135
   3 Al     0.000000    1.650788   22.003702
   4 Al     0.000000    0.000000   24.338269
   5 Al     1.429625    0.825394   26.672837
   6 Al     0.000000    1.650788   29.007404
   7 Al     0.000000    0.000000   31.341972
   8 Al     1.429625    0.825394   33.676539
   9 Al     0.000000    1.650788   36.011106
  10 Al     0.000000    0.000000   38.345674
  11 Al     1.429625    0.825394   40.680241
  12 Al     0.000000    1.650788   43.014808
  13 Al     0.000000    0.000000   45.349376
  14 C      0.000000    0.000000   46.389376
  15 O     -0.000000    0.000000   47.480754

Unit cell:
           periodic     x           y           z      points  spacing
  1. axis:    yes    2.859249    0.000000    0.000000    14     0.1769
  2. axis:    yes    1.429625    2.476183    0.000000    14     0.1769
  3. axis:    no     0.000000    0.000000   60.349376   336     0.1796

  Lengths:   2.859249   2.859249  60.349376
  Angles:   90.000000  90.000000  60.000000

Effective grid spacing dv^(1/3) = 0.1865

                     log10-error:    total        iterations:
           time      wfs    density  energy       fermi  poisson
iter:   1  21:54:53  +0.10   +inf   -36.250706    35            
iter:   2  21:54:57  +0.55  -0.99  -752.323250    37            
iter:   3  21:55:01  +0.06  -0.04  -117.064773    36            
iter:   4  21:55:05  +0.62  -0.22    24.276912    36            
iter:   5  21:55:09  +0.83  -0.52    -0.034119    22            
iter:   6  21:55:13  +0.50  -0.72   -23.405877    33            
iter:   7  21:55:17  +1.06  -0.93   -71.863476    35            
iter:   8  21:55:21  -0.77  -0.49  -134.520086    36            
iter:   9  21:55:25  -0.56  -0.21  -109.952984    33            
iter:  10  21:55:29  -1.38  -0.26   -41.459768    35            
iter:  11  21:55:33  -1.86  -0.88   -36.361304    35            
iter:  12  21:55:37  -1.41  -1.01   -76.822750    34            
iter:  13  21:55:41  -0.37  -0.39   -84.164471    34            
iter:  14  21:55:45  -2.26  -0.35   -35.986409    31            
iter:  15  21:55:49  -2.86  -0.98   -34.078842    3             
iter:  16  21:55:53  -3.31  -1.34   -34.835593    3             
iter:  17  21:55:57  -3.44  -1.11   -35.595270    33            
iter:  18  21:56:01  -3.28  -1.06   -34.154069    3             
iter:  19  21:56:05  -2.09  -1.19   -64.223334    36            
iter:  20  21:56:09  -2.61  -0.47   -33.513578    35            
iter:  21  21:56:13  -3.27  -1.37   -33.244901    3             
iter:  22  21:56:17  -3.45  -1.53   -33.423677    4             
iter:  23  21:56:21  -4.16  -1.41   -33.136173    3             
iter:  24  21:56:25  -4.30  -1.76   -33.613401    2             
iter:  25  21:56:29  -4.02  -1.32   -34.054519    29            
iter:  26  21:56:33  -3.91  -1.22   -33.078949    3             
iter:  27  21:56:36  -4.39  -1.91   -33.084475    3             
iter:  28  21:56:40  -4.57  -1.92   -33.044212    3             
iter:  29  21:56:44  -4.57  -2.22   -33.123248    3             
iter:  30  21:56:48  -4.61  -1.74   -33.086375    2             
iter:  31  21:56:52  -4.22  -1.81   -33.050378    3             
iter:  32  21:56:56  -4.74  -2.07   -33.047495    3             
iter:  33  21:57:00  -5.18  -2.13   -33.046236    3             
iter:  34  21:57:04  -5.62  -2.23   -33.038367    3             
iter:  35  21:57:08  -5.57  -2.36   -33.048977    3             
iter:  36  21:57:12  -5.75  -2.09   -33.044477    3             
iter:  37  21:57:16  -5.88  -2.23   -33.038250    3             
iter:  38  21:57:20  -4.87  -2.35   -33.095695    3             
iter:  39  21:57:24  -5.03  -1.82   -33.034901    3             
iter:  40  21:57:28  -5.44  -2.69   -33.051579    3             
iter:  41  21:57:32  -5.64  -2.07   -33.037653    3             
iter:  42  21:57:36  -5.55  -2.45   -33.035500    3             
iter:  43  21:57:40  -6.26  -2.57   -33.034408    3             
iter:  44  21:57:44  -5.23  -2.89   -33.090431    3             
iter:  45  21:57:48  -5.27  -1.85   -33.034549    3             
iter:  46  21:57:52  -6.15  -2.74   -33.034598    2             
iter:  47  21:57:56  -6.73  -2.72   -33.034461    2             
iter:  48  21:58:00  -6.70  -2.83   -33.035925    2             
iter:  49  21:58:04  -6.73  -2.50   -33.034119    2             
iter:  50  21:58:08  -6.79  -3.21   -33.034168    3             
iter:  51  21:58:12  -6.90  -3.14   -33.034203    3             
iter:  52  21:58:16  -6.24  -3.00   -33.035842    3             
iter:  53  21:58:19  -6.10  -2.75   -33.034221    3             
iter:  54  21:58:23  -6.92  -3.04   -33.034872    3             
iter:  55  21:58:27  -7.52  -2.87   -33.034089    2             
iter:  56  21:58:31  -7.39  -3.35   -33.034106    2             
iter:  57  21:58:35  -7.09  -3.17   -33.034437    2             
iter:  58  21:58:39  -6.67  -3.14   -33.034229    2             
iter:  59  21:58:43  -7.33  -3.60   -33.034185    2             
iter:  60  21:58:47  -7.54  -3.34   -33.034249    2             
iter:  61  21:58:51  -7.85  -3.57   -33.034098    2             
iter:  62  21:58:55  -8.01  -3.47   -33.034154    2             
iter:  63  21:58:59  -8.71  -4.28   -33.034158    2             

Converged after 63 iterations.

Dipole moment: (2.072827, 1.196747, -0.192578) |e|*Ang

Energy contributions relative to reference atoms: (reference = -95516.406125)

Kinetic:       +190.513540
Potential:     -116.931442
External:        +0.000000
XC:            -106.713749
Entropy (-ST):   -0.208274
Local:           +0.201630
--------------------------
Free energy:    -33.138295
Extrapolated:   -33.034158

Fermi level: 1.90767

Warning: Showing only first 2 kpts
 Kpt  Band  Eigenvalues  Occupancy
  0    24      3.66548    0.00000
  0    25      3.81291    0.00000
  0    26      3.87384    0.00000
  0    27      4.89058    0.00000

  1    24      3.72751    0.00000
  1    25      3.83789    0.00000
  1    26      3.84866    0.00000
  1    27      4.84479    0.00000



Forces in eV/Ang:
  0 Al    0.00000    0.00000   -0.06047
  1 Al    0.00000    0.00000    0.08168
  2 Al    0.00000    0.00000   -0.03311
  3 Al    0.00000    0.00000    0.00299
  4 Al    0.00000    0.00000    0.01504
  5 Al   -0.00000    0.00000    0.00268
  6 Al    0.00000    0.00000    0.00219
  7 Al   -0.00000   -0.00000   -0.00637
  8 Al    0.00000   -0.00000   -0.00331
  9 Al    0.00000    0.00000    0.02130
 10 Al    0.00000   -0.00000   -0.02327
 11 Al    0.00000    0.00000    0.00961
 12 Al    0.00000    0.00000   -0.01432
 13 Al    0.00000    0.00000 -119.96467
 14 C     0.00000    0.00000  104.99380
 15 O     0.00000    0.00000   14.96669

System changes: positions 

Initializing position-dependent things.

Density initialized from wave functions
                    
                    
                    
                    
       O            
                    
       C            
       Al           
                    
        Al          
                    
                    
           Al       
                    
                    
                    
       Al           
                    
        Al          
                    
                    
           Al       
                    
                    
       Al           
                    
        Al          
                    
                    
                    
           Al       
                    
                    
       Al           
                    
        Al          
                    
                    
           Al       
                    
                    
                    
       Al           
                    
        Al          
                    
                    
                    
                    

Positions:
   0 Al     0.000000    1.650788   15.000000
   1 Al     0.000000    0.000000   17.334567
   2 Al     1.429625    0.825394   19.669135
   3 Al     0.000000    1.650788   22.003702
   4 Al     0.000000    0.000000   24.338269
   5 Al     1.429625    0.825394   26.672837
   6 Al     0.000000    1.650788   29.007404
   7 Al     0.000000    0.000000   31.341972
   8 Al     1.429625    0.825394   33.676539
   9 Al     0.000000    1.650788   36.011106
  10 Al     0.000000    0.000000   38.345674
  11 Al     1.429625    0.825394   40.680241
  12 Al     0.000000    1.650788   43.014808
  13 Al     0.000000    0.000000   45.349376
  14 C      0.000000   -0.000000   46.412952
  15 O      0.000000    0.000000   47.520754

Unit cell:
           periodic     x           y           z      points  spacing
  1. axis:    yes    2.859249    0.000000    0.000000    14     0.1769
  2. axis:    yes    1.429625    2.476183    0.000000    14     0.1769
  3. axis:    no     0.000000    0.000000   60.349376   336     0.1796

  Lengths:   2.859249   2.859249  60.349376
  Angles:   90.000000  90.000000  60.000000

Effective grid spacing dv^(1/3) = 0.1865

                     log10-error:    total        iterations:
           time      wfs    density  energy       fermi  poisson
iter:   1  21:59:05  +0.75   +inf   -43.935017    33            
iter:   2  21:59:09  +1.17  -0.79  -1420.014833    38            
iter:   3  21:59:13  +0.75  +0.00  -301.375435    38            
iter:   4  21:59:17  +0.80  -0.06   -16.649401    37            
iter:   5  21:59:21  +1.03  -0.32     0.254901    34            
iter:   6  21:59:25  +0.86  -0.42   -15.929641    4             
iter:   7  21:59:29  +1.53  -0.69  -142.785448    31            
iter:   8  21:59:32  +0.74  -0.27  -404.265375    36            
iter:   9  21:59:36  +0.29  -0.03   -68.994579    36            
iter:  10  21:59:40  +0.02  -0.46   -54.621793    35            
iter:  11  21:59:44  -0.44  -0.61   -47.049295    34            
iter:  12  21:59:48  +0.20  -0.80  -204.719927    37            
iter:  13  21:59:52  -0.34  -0.19   -37.973502    36            
iter:  14  21:59:56  -0.38  -0.97  -321.846382    35            
iter:  15  22:00:00  +0.35  -0.06   -53.508125    31            
iter:  16  22:00:04  -0.79  -0.80   -39.988908    35            
iter:  17  22:00:08  -1.33  -0.93   -36.609062    35            
iter:  18  22:00:12  -1.78  -1.34   -36.765348    3             
iter:  19  22:00:16  -2.18  -1.32   -37.276293    3             
iter:  20  22:00:20  -3.14  -1.15   -39.602734    3             
iter:  21  22:00:24  -3.04  -0.92   -36.270919    3             
iter:  22  22:00:28  -2.41  -1.49   -51.186841    34            
iter:  23  22:00:32  -2.24  -0.70   -37.455220    34            
iter:  24  22:00:36  -3.21  -1.13   -36.820875    3             
iter:  25  22:00:40  -3.76  -1.24   -36.317121    3             
iter:  26  22:00:44  -4.33  -1.44   -36.107289    3             
iter:  27  22:00:48  -4.06  -1.64   -36.184387    3             
iter:  28  22:00:52  -2.99  -1.53   -36.231322    3             
iter:  29  22:00:56  -3.28  -1.54   -38.457963    2             
iter:  30  22:01:00  -3.56  -1.04   -36.732316    34            
iter:  31  22:01:04  -3.42  -1.26   -36.522768    2             
iter:  32  22:01:08  -3.64  -1.33   -36.308971    3             
iter:  33  22:01:12  -4.26  -1.45   -36.023607    3             
iter:  34  22:01:15  -4.14  -1.84   -35.987772    3             
iter:  35  22:01:19  -4.68  -2.17   -36.064248    3             
iter:  36  22:01:23  -4.46  -1.72   -36.231736    3             
iter:  37  22:01:27  -4.74  -1.50   -36.089246    3             
iter:  38  22:01:31  -4.29  -1.67   -36.188864    3             
iter:  39  22:01:35  -4.62  -1.55   -35.990393    3             
iter:  40  22:01:39  -5.60  -2.10   -35.983189    2             
iter:  41  22:01:43  -4.95  -2.24   -35.992317    3             
iter:  42  22:01:47  -5.13  -2.10   -35.978541    3             
iter:  43  22:01:51  -5.20  -2.49   -35.989907    2             
iter:  44  22:01:55  -5.18  -2.19   -36.017774    3             
iter:  45  22:01:59  -5.38  -1.87   -35.985982    3             
iter:  46  22:02:03  -5.79  -2.26   -35.977635    3             
iter:  47  22:02:07  -5.61  -2.69   -35.978463    3             
iter:  48  22:02:11  -5.90  -2.66   -35.978228    3             
iter:  49  22:02:15  -5.54  -2.56   -35.976956    3             
iter:  50  22:02:19  -6.04  -2.90   -35.988539    2             
iter:  51  22:02:23  -5.58  -2.18   -35.989430    3             
iter:  52  22:02:27  -5.65  -2.19   -35.981393    3             
iter:  53  22:02:31  -6.09  -2.32   -35.976792    3             
iter:  54  22:02:35  -6.83  -3.21   -35.977208    2             
iter:  55  22:02:39  -6.87  -3.02   -35.976731    2             
iter:  56  22:02:43  -6.83  -3.22   -35.976841    2             
iter:  57  22:02:47  -6.27  -3.47   -35.977432    2             
iter:  58  22:02:51  -6.39  -2.83   -35.977340    3             
iter:  59  22:02:54  -7.12  -2.91   -35.976755    2             
iter:  60  22:02:58  -6.77  -3.08   -35.976724    2             
iter:  61  22:03:02  -7.03  -3.19   -35.976757    2             
iter:  62  22:03:06  -7.49  -3.41   -35.976827    2             
iter:  63  22:03:10  -7.25  -3.54   -35.976725    2             
iter:  64  22:03:14  -8.03  -3.55   -35.976737    2             
iter:  65  22:03:18  -7.09  -3.50   -35.976903    2             
iter:  66  22:03:22  -7.31  -3.23   -35.976769    2             
iter:  67  22:03:26  -7.87  -3.59   -35.976846    2             
iter:  68  22:03:30  -8.30  -3.60   -35.976754    2             
iter:  69  22:03:34  -8.53  -3.90   -35.976775    2             
iter:  70  22:03:38  -9.04  -4.03   -35.976778    2             

Converged after 70 iterations.

Dipole moment: (2.073775, 1.197295, -0.204503) |e|*Ang

Energy contributions relative to reference atoms: (reference = -95516.406125)

Kinetic:       +182.367576
Potential:     -112.665631
External:        +0.000000
XC:            -105.700062
Entropy (-ST):   -0.207684
Local:           +0.125181
--------------------------
Free energy:    -36.080620
Extrapolated:   -35.976778

Fermi level: 1.87973

Warning: Showing only first 2 kpts
 Kpt  Band  Eigenvalues  Occupancy
  0    24      3.66408    0.00000
  0    25      3.85954    0.00000
  0    26      3.86947    0.00000
  0    27      4.84674    0.00000

  1    24      3.69696    0.00000
  1    25      3.87711    0.00000
  1    26      3.88489    0.00000
  1    27      4.79983    0.00000



Forces in eV/Ang:
  0 Al   -0.00000    0.00000   -0.05704
  1 Al   -0.00000    0.00000    0.08527
  2 Al    0.00000    0.00000   -0.02960
  3 Al   -0.00000    0.00000    0.00486
  4 Al    0.00000   -0.00000    0.01403
  5 Al   -0.00000    0.00000    0.00132
  6 Al    0.00000    0.00000    0.00188
  7 Al   -0.00000    0.00000   -0.00797
  8 Al    0.00000    0.00000   -0.00472
  9 Al    0.00000    0.00000    0.02548
 10 Al    0.00000    0.00000   -0.02080
 11 Al   -0.00000    0.00000    0.00490
 12 Al   -0.00000   -0.00000   -0.00961
 13 Al    0.00000    0.00000 -110.82503
 14 C    -0.00000    0.00000   98.63590
 15 O    -0.00000    0.00000   12.17576

System changes: positions 

Initializing position-dependent things.

Density initialized from wave functions
                    
                    
                    
                    
       O            
                    
       C            
       Al           
                    
        Al          
                    
                    
           Al       
                    
                    
                    
       Al           
                    
        Al          
                    
                    
           Al       
                    
                    
       Al           
                    
        Al          
                    
                    
                    
           Al       
                    
                    
       Al           
                    
        Al          
                    
                    
           Al       
                    
                    
                    
       Al           
                    
        Al          
                    
                    
                    
                    

Positions:
   0 Al     0.000000    1.650788   15.000000
   1 Al     0.000000    0.000000   17.334567
   2 Al     1.429625    0.825394   19.669135
   3 Al     0.000000    1.650788   22.003702
   4 Al     0.000000    0.000000   24.338269
   5 Al     1.429625    0.825394   26.672837
   6 Al     0.000000    1.650788   29.007404
   7 Al     0.000000    0.000000   31.341972
   8 Al     1.429625    0.825394   33.676539
   9 Al     0.000000    1.650788   36.011106
  10 Al     0.000000    0.000000   38.345674
  11 Al     1.429625    0.825394   40.680241
  12 Al     0.000000    1.650788   43.014808
  13 Al     0.000000    0.000000   45.349376
  14 C     -0.000000   -0.000000   46.451207
  15 O     -0.000000   -0.000000   47.560754

Unit cell:
           periodic     x           y           z      points  spacing
  1. axis:    yes    2.859249    0.000000    0.000000    14     0.1769
  2. axis:    yes    1.429625    2.476183    0.000000    14     0.1769
  3. axis:    no     0.000000    0.000000   60.349376   336     0.1796

  Lengths:   2.859249   2.859249  60.349376
  Angles:   90.000000  90.000000  60.000000

Effective grid spacing dv^(1/3) = 0.1865

                     log10-error:    total        iterations:
           time      wfs    density  energy       fermi  poisson
iter:   1  22:03:44  +0.77   +inf   -49.905037    28            
iter:   2  22:03:48  +1.28  -0.74  -1554.403799    36            
iter:   3  22:03:52  +0.94  +0.01  -347.431060    39            
iter:   4  22:03:56  +0.81  -0.01   -13.521265    31            
iter:   5  22:04:00  +1.03  -0.32     0.288071    30            
iter:   6  22:04:04  +0.90  -0.41   -19.375511    32            
iter:   7  22:04:07  +1.56  -0.70  -159.598311    32            
iter:   8  22:04:11  +0.57  -0.24  -289.770330    36            
iter:   9  22:04:15  +0.07  -0.08  -119.600629    36            
iter:  10  22:04:19  -0.46  -0.28   -59.721983    36            
iter:  11  22:04:23  -0.65  -0.61   -61.415440    34            
iter:  12  22:04:27  -0.49  -0.58  -106.453008    36            
iter:  13  22:04:31  -0.12  -0.36   -64.842965    37            
iter:  14  22:04:35  +1.49  -0.59  -1803.837380    36            
iter:  15  22:04:39  -0.02  +0.04   -84.024366    37            
iter:  16  22:04:43  +0.51  -0.11   104.361302    35            
iter:  17  22:04:47  +0.68  -0.18    53.291942    35            
iter:  18  22:04:51  +1.03  -0.29   -43.760350    37            
iter:  19  22:04:55  +2.76  -0.38  -2879.093873    33            
iter:  20  22:04:59  +2.32  +0.14  -1042.478854    35            
iter:  21  22:05:03  +1.02  +0.12  -207.465795    37            
iter:  22  22:05:07  +0.70  -0.08   -27.236696    32            
iter:  23  22:05:11  +1.90  -0.32  -568.148506    33            
iter:  24  22:05:15  +2.89  +0.01  -1984.160191    36            
iter:  25  22:05:19  +2.13  +0.07  -804.768373    37            
iter:  26  22:05:23  +1.60  +0.07  -601.858786    35            
iter:  27  22:05:27  +1.44  +0.03  -350.244492    36            
iter:  28  22:05:31  +1.09  -0.12  -1046.914132    37            
iter:  29  22:05:35  +2.70  -0.03  -2227.463726    31            
iter:  30  22:05:39  +2.77  +0.11  -1624.224078    33            
iter:  31  22:05:43  +1.97  +0.10   169.465104    40            
iter:  32  22:05:47  +1.87  -0.03   -80.194482    38            
iter:  33  22:05:51  +3.07  -0.15  -3415.456414    35            
iter:  34  22:05:55  +2.07  +0.16  -111.586115    39            
iter:  35  22:05:58  +1.98  -0.00   -92.418349    37            
iter:  36  22:06:02  +2.86  -0.16  -1224.335681    38            
iter:  37  22:06:06  +1.92  +0.01   -80.193798    37            
iter:  38  22:06:10  +1.54  -0.41   -21.330256    34            
iter:  39  22:06:14  +1.38  -0.34  -141.776816    36            
iter:  40  22:06:18  +1.71  -0.22  -292.946308    35            
iter:  41  22:06:22  +2.35  -0.12  -861.363779    33            
iter:  42  22:06:26  +0.93  +0.06  -267.547617    33            
iter:  43  22:06:30  +0.75  -0.28  -204.347137    34            
iter:  44  22:06:34  -0.07  -0.26   -83.565509    34            
iter:  45  22:06:38  +1.16  -0.48  -516.431487    37            
iter:  46  22:06:42  +0.40  -0.08  -360.389032    31            
iter:  47  22:06:46  +1.90  -0.17  -602.993931    37            
iter:  48  22:06:50  +1.35  +0.01   -80.691074    36            
iter:  49  22:06:54  +1.04  -0.41  -162.990090    32            
iter:  50  22:06:58  +1.48  -0.28  -244.784320    35            
iter:  51  22:07:02  +1.07  -0.16  -534.979318    33            
iter:  52  22:07:06  +0.34  -0.01   -76.718062    38            
iter:  53  22:07:10  +0.08  -0.54  -180.390350    35            
iter:  54  22:07:14  -0.31  -0.21  -131.166468    36            
iter:  55  22:07:18  +1.13  -0.34  -437.871922    36            
iter:  56  22:07:22  +0.70  -0.00  -129.574637    36            
iter:  57  22:07:26  +1.20  -0.33  -986.574227    34            
iter:  58  22:07:30  +0.13  -0.02  -419.396369    38            
iter:  59  22:07:34  +0.05  -0.13  -182.212130    35            
iter:  60  22:07:38  -0.16  -0.21   -76.456944    34            
iter:  61  22:07:42  +1.89  -0.35  -428.005707    32            
iter:  62  22:07:46  +2.87  -0.02  -2419.981900    30            
iter:  63  22:07:50  +2.03  +0.14  -700.523017    32            
iter:  64  22:07:53  +1.01  +0.07  -189.991231    36            
iter:  65  22:07:57  +0.79  -0.11   -30.089617    36            
iter:  66  22:08:01  +2.71  -0.29  -1439.317140    37            
iter:  67  22:08:05  +2.61  -0.06  -1288.108162    35            
iter:  68  22:08:09  +1.90  +0.09  -453.299421    38            
iter:  69  22:08:13  +1.00  +0.00  -197.057204    37            
iter:  70  22:08:17  +0.93  -0.28   -37.525171    36            
iter:  71  22:08:21  +2.41  -0.37  -2558.565790    34            
iter:  72  22:08:25  +2.73  +0.12  -1677.767466    32            
iter:  73  22:08:29  +1.51  +0.18   209.860790    35            
iter:  74  22:08:33  +1.96  -0.15    55.841809    35            
iter:  75  22:08:37  +1.05  -0.21   -76.281410    34            
iter:  76  22:08:41  +2.57  -0.34  -1492.601811    37            
iter:  77  22:08:45  +1.44  +0.02   -92.292679    39            
iter:  78  22:08:49  +0.93  -0.21    30.828883    37            
iter:  79  22:08:53  +0.83  -0.26    32.287390    35            
iter:  80  22:08:57  +0.93  -0.50    -1.488991    33            
iter:  81  22:09:01  +1.68  -0.67  -164.419472    33            
iter:  82  22:09:05  +1.33  -0.26   -86.303618    36            
iter:  83  22:09:09  +0.57  -0.44  -193.283030    35            
iter:  84  22:09:13  +0.13  -0.15   -55.841799    34            
iter:  85  22:09:17  -0.36  -0.67   -60.486634    33            
iter:  86  22:09:21  -0.85  -0.66   -66.523709    33            
iter:  87  22:09:25  +0.08  -0.54  -482.862944    34            
iter:  88  22:09:29  +0.70  -0.06  -109.659896    38            
iter:  89  22:09:33  +0.54  -0.14   -40.976428    34            
iter:  90  22:09:37  +1.11  -0.33     7.655624    30            
iter:  91  22:09:41  +1.07  -0.68   -11.953789    34            
iter:  92  22:09:45  +0.85  -0.72   -46.011265    34            
iter:  93  22:09:48  +1.07  -0.57   -40.300363    32            
iter:  94  22:09:52  +0.94  -0.92   -60.719281    32            
iter:  95  22:09:56  +0.36  -0.62   -61.586604    3             
iter:  96  22:10:00  -0.34  -0.55   -50.870837    34            
iter:  97  22:10:04  -0.47  -0.75   -52.122317    34            
iter:  98  22:10:08  -0.65  -0.74  -120.330714    34            
iter:  99  22:10:12  -1.04  -0.29   -77.907412    35            
iter: 100  22:10:16  -0.29  -0.47  -200.598664    31            
iter: 101  22:10:20  +0.09  -0.17  -115.565872    34            
iter: 102  22:10:24  +0.92  -0.29  -444.600854    37            
iter: 103  22:10:28  -0.17  -0.00   -58.540734    36            
iter: 104  22:10:32  -0.09  -0.71   -76.676652    35            
iter: 105  22:10:36  -1.02  -0.51   -68.350649    35            
iter: 106  22:10:40  -1.62  -0.55   -62.398413    33            
iter: 107  22:10:44  +0.46  -0.62  -360.524956    33            
iter: 108  22:10:48  +0.72  -0.02  -223.352743    3             
iter: 109  22:10:52  -0.47  -0.18   -54.661564    33            
iter: 110  22:10:56  -1.36  -0.65   -53.355158    34            
iter: 111  22:11:00  -1.79  -0.69   -59.183265    34            
iter: 112  22:11:04  -2.40  -0.61   -47.006694    34            
iter: 113  22:11:08  -1.44  -0.80   -54.244415    35            
iter: 114  22:11:12  -2.37  -0.65   -50.089863    34            
iter: 115  22:11:16  -2.40  -0.70   -47.072073    33            
iter: 116  22:11:20  -2.21  -0.77   -63.398309    34            
iter: 117  22:11:24  -2.39  -0.57   -42.190661    36            
iter: 118  22:11:28  -3.15  -1.05   -41.581758    3             
iter: 119  22:11:32  -3.84  -1.13   -40.632883    4             
iter: 120  22:11:36  -3.31  -1.32   -41.767875    30            
iter: 121  22:11:40  -3.71  -1.10   -41.603465    3             
iter: 122  22:11:43  -2.91  -1.09   -46.989536    32            
iter: 123  22:11:47  -3.23  -0.82   -42.243285    34            
iter: 124  22:11:51  -3.39  -1.03   -40.759856    34            
iter: 125  22:11:55  -3.18  -1.31   -41.473008    32            
iter: 126  22:11:59  -3.03  -1.16   -41.162604    32            
iter: 127  22:12:03  -2.89  -1.18   -46.012216    34            
iter: 128  22:12:07  -3.50  -0.80   -40.221032    3             
iter: 129  22:12:11  -4.07  -1.52   -40.438064    3             
iter: 130  22:12:15  -4.01  -1.38   -40.507961    3             
iter: 131  22:12:19  -3.82  -1.35   -40.312253    3             
iter: 132  22:12:23  -3.49  -1.47   -42.140869    2             
iter: 133  22:12:27  -3.44  -1.02   -41.401658    31            
iter: 134  22:12:31  -3.55  -1.19   -41.635815    32            
iter: 135  22:12:35  -4.09  -1.12   -40.679526    3             
iter: 136  22:12:39  -4.40  -1.28   -40.387163    3             
iter: 137  22:12:43  -3.36  -1.38   -41.077530    4             
iter: 138  22:12:47  -3.64  -1.18   -40.281352    3             
iter: 139  22:12:51  -4.48  -1.47   -40.168973    3             
iter: 140  22:12:55  -4.21  -1.56   -40.584075    3             
iter: 141  22:12:59  -4.32  -1.31   -40.145730    3             
iter: 142  22:13:03  -4.06  -1.62   -40.032316    3             
iter: 143  22:13:07  -3.12  -1.83   -42.465908    32            
iter: 144  22:13:11  -3.17  -1.02   -39.998139    34            
iter: 145  22:13:15  -4.22  -1.97   -40.246281    3             
iter: 146  22:13:18  -4.62  -1.52   -40.034468    3             
iter: 147  22:13:22  -4.71  -1.79   -40.099727    3             
iter: 148  22:13:26  -4.90  -1.67   -39.984703    3             
iter: 149  22:13:30  -3.96  -2.18   -40.422402    3             
iter: 150  22:13:34  -4.20  -1.38   -40.019683    3             
iter: 151  22:13:38  -4.44  -1.94   -40.060849    3             
iter: 152  22:13:42  -4.66  -1.76   -39.984377    3             
iter: 153  22:13:46  -4.72  -2.20   -40.039290    3             
iter: 154  22:13:50  -5.02  -1.81   -40.044887    3             
iter: 155  22:13:54  -4.92  -1.78   -40.051011    3             
iter: 156  22:13:58  -4.85  -1.77   -40.028542    3             
iter: 157  22:14:02  -5.49  -1.84   -39.990566    3             
iter: 158  22:14:06  -5.60  -2.09   -39.983554    3             
iter: 159  22:14:10  -5.81  -2.25   -40.005170    3             
iter: 160  22:14:14  -5.08  -1.95   -40.015454    3             
iter: 161  22:14:18  -5.21  -1.90   -39.993409    3             
iter: 162  22:14:22  -4.74  -2.09   -40.108018    3             
iter: 163  22:14:26  -4.93  -1.63   -39.974556    3             
iter: 164  22:14:30  -5.66  -2.60   -39.985809    2             
iter: 165  22:14:34  -6.09  -2.15   -39.975018    3             
iter: 166  22:14:38  -6.12  -2.66   -39.980423    3             
iter: 167  22:14:42  -6.65  -2.34   -39.976747    2             
iter: 168  22:14:46  -5.84  -2.47   -39.985069    3             
iter: 169  22:14:49  -5.84  -2.18   -39.986212    3             
iter: 170  22:14:53  -5.89  -2.20   -39.981034    2             
iter: 171  22:14:57  -5.90  -2.26   -39.974229    3             
iter: 172  22:15:01  -5.50  -2.70   -39.988070    2             
iter: 173  22:15:05  -5.68  -2.15   -39.975526    2             
iter: 174  22:15:09  -6.25  -2.62   -39.974051    2             
iter: 175  22:15:13  -5.80  -2.71   -39.982735    3             
iter: 176  22:15:17  -5.64  -2.26   -39.974916    3             
iter: 177  22:15:21  -6.00  -2.61   -39.981187    3             
iter: 178  22:15:25  -5.50  -2.32   -39.975148    3             
iter: 179  22:15:29  -5.47  -2.55   -39.992773    3             
iter: 180  22:15:33  -5.69  -2.07   -39.974487    3             
iter: 181  22:15:37  -5.89  -2.82   -39.980776    3             
iter: 182  22:15:41  -6.07  -2.29   -39.973703    3             
iter: 183  22:15:45  -6.42  -3.20   -39.974434    2             
iter: 184  22:15:49  -6.64  -2.68   -39.973649    2             
iter: 185  22:15:53  -6.25  -3.25   -39.974776    3             
iter: 186  22:15:57  -6.44  -2.56   -39.973777    3             
iter: 187  22:16:01  -7.03  -3.07   -39.973922    3             
iter: 188  22:16:05  -7.38  -3.01   -39.973521    3             
iter: 189  22:16:09  -7.23  -3.51   -39.973786    2             
iter: 190  22:16:13  -7.35  -2.97   -39.973543    2             
iter: 191  22:16:17  -7.53  -3.53   -39.973498    2             
iter: 192  22:16:21  -7.45  -3.91   -39.973432    2             
iter: 193  22:16:24  -8.19  -3.65   -39.973532    2             
iter: 194  22:16:28  -8.81  -3.75   -39.973480    2             
iter: 195  22:16:32  -8.70  -4.08   -39.973516    2             

Converged after 195 iterations.

Dipole moment: (2.075869, 1.198504, -0.202890) |e|*Ang

Energy contributions relative to reference atoms: (reference = -95516.406125)

Kinetic:       +172.736330
Potential:     -107.855816
External:        +0.000000
XC:            -104.757307
Entropy (-ST):   -0.206181
Local:           +0.006368
--------------------------
Free energy:    -40.076606
Extrapolated:   -39.973516

Fermi level: 1.89278

Warning: Showing only first 2 kpts
 Kpt  Band  Eigenvalues  Occupancy
  0    24      3.68966    0.00000
  0    25      3.98898    0.00000
  0    26      4.03772    0.00000
  0    27      4.83401    0.00000

  1    24      3.68711    0.00000
  1    25      4.04107    0.00000
  1    26      4.06417    0.00000
  1    27      4.78420    0.00000



Forces in eV/Ang:
  0 Al   -0.00000    0.00000   -0.06000
  1 Al    0.00000    0.00000    0.08362
  2 Al   -0.00000    0.00000   -0.03011
  3 Al    0.00000   -0.00000    0.00544
  4 Al   -0.00000    0.00000    0.01457
  5 Al   -0.00000    0.00000    0.00470
  6 Al    0.00000   -0.00000    0.00722
  7 Al    0.00000    0.00000   -0.00724
  8 Al   -0.00000   -0.00000   -0.00781
  9 Al    0.00000    0.00000    0.03040
 10 Al    0.00000    0.00000   -0.01747
 11 Al   -0.00000    0.00000   -0.00333
 12 Al    0.00000    0.00000   -0.00827
 13 Al    0.00000    0.00000  -97.20395
 14 C    -0.00000    0.00000   85.75422
 15 O    -0.00000    0.00000   11.44546

System changes: positions 

Initializing position-dependent things.

Density initialized from wave functions
                    
                    
                    
                    
       O            
                    
       C            
       Al           
                    
        Al          
                    
                    
           Al       
                    
                    
                    
       Al           
                    
        Al          
                    
                    
           Al       
                    
                    
       Al           
                    
        Al          
                    
                    
                    
           Al       
                    
                    
       Al           
                    
        Al          
                    
                    
           Al       
                    
                    
                    
       Al           
                    
        Al          
                    
                    
                    
                    

Positions:
   0 Al     0.000000    1.650788   15.000000
   1 Al     0.000000    0.000000   17.334567
   2 Al     1.429625    0.825394   19.669135
   3 Al     0.000000    1.650788   22.003702
   4 Al     0.000000    0.000000   24.338269
   5 Al     1.429625    0.825394   26.672837
   6 Al     0.000000    1.650788   29.007404
   7 Al     0.000000    0.000000   31.341972
   8 Al     1.429625    0.825394   33.676539
   9 Al     0.000000    1.650788   36.011106
  10 Al     0.000000    0.000000   38.345674
  11 Al     1.429625    0.825394   40.680241
  12 Al     0.000000    1.650788   43.014808
  13 Al     0.000000    0.000000   45.349376
  14 C     -0.000000   -0.000000   46.483369
  15 O     -0.000000   -0.000000   47.600754

Unit cell:
           periodic     x           y           z      points  spacing
  1. axis:    yes    2.859249    0.000000    0.000000    14     0.1769
  2. axis:    yes    1.429625    2.476183    0.000000    14     0.1769
  3. axis:    no     0.000000    0.000000   60.349376   336     0.1796

  Lengths:   2.859249   2.859249  60.349376
  Angles:   90.000000  90.000000  60.000000

Effective grid spacing dv^(1/3) = 0.1865

                     log10-error:    total        iterations:
           time      wfs    density  energy       fermi  poisson
iter:   1  22:16:38  +0.77   +inf   -48.121380    30            
iter:   2  22:16:42  +0.47  -0.99  -604.669451    36            
iter:   3  22:16:46  +0.56  -0.05  -107.300646    37            
iter:   4  22:16:50  +1.05  -0.17   -10.506228    35            
iter:   5  22:16:54  +1.10  -0.41   -53.721548    34            
iter:   6  22:16:58  +0.54  -0.43   -43.856646    36            
iter:   7  22:17:02  +0.41  -0.84   -50.073482    31            
iter:   8  22:17:06  +0.49  -0.84  -474.307418    35            
iter:   9  22:17:10  +0.04  -0.04   -39.805380    37            
iter:  10  22:17:14  -0.27  -1.07   -45.018548    36            
iter:  11  22:17:18  +0.25  -1.04   -55.673591    34            
iter:  12  22:17:22  -0.76  -0.71   -43.943610    34            
iter:  13  22:17:26  -1.22  -1.25   -44.348448    3             
iter:  14  22:17:30  -1.87  -1.17  -106.873331    33            
iter:  15  22:17:34  -1.99  -0.31   -44.772986    32            
iter:  16  22:17:38  -2.87  -1.10   -43.326977    4             
iter:  17  22:17:42  -2.69  -1.50   -57.546326    35            
iter:  18  22:17:45  -2.78  -0.67   -44.161226    34            
iter:  19  22:17:49  -3.46  -1.19   -43.305418    4             
iter:  20  22:17:53  -3.58  -1.50   -47.091787    34            
iter:  21  22:17:57  -3.48  -0.93   -43.204259    3             
iter:  22  22:18:01  -3.84  -1.56   -43.468459    3             
iter:  23  22:18:05  -3.26  -1.37   -44.082311    33            
iter:  24  22:18:09  -3.54  -1.22   -43.973444    30            
iter:  25  22:18:13  -3.75  -1.22   -43.219698    3             
iter:  26  22:18:17  -2.81  -1.58   -43.099499    3             
iter:  27  22:18:21  -3.57  -1.74   -43.137573    3             
iter:  28  22:18:25  -3.48  -1.70   -46.674334    3             
iter:  29  22:18:29  -3.86  -0.90   -43.861816    3             
iter:  30  22:18:33  -3.82  -1.25   -43.175939    4             
iter:  31  22:18:37  -4.23  -1.61   -43.107125    3             
iter:  32  22:18:41  -4.09  -1.72   -43.351554    3             
iter:  33  22:18:45  -4.39  -1.47   -43.017918    3             
iter:  34  22:18:49  -3.66  -2.22   -43.053734    3             
iter:  35  22:18:53  -4.21  -1.88   -43.014929    3             
iter:  36  22:18:57  -4.73  -2.41   -43.043419    2             
iter:  37  22:19:01  -4.96  -1.97   -43.039739    3             
iter:  38  22:19:05  -4.98  -2.01   -43.064110    3             
iter:  39  22:19:09  -5.16  -1.85   -43.012128    3             
iter:  40  22:19:13  -6.07  -2.57   -43.011070    2             
iter:  41  22:19:17  -6.46  -2.89   -43.012484    3             
iter:  42  22:19:21  -5.99  -2.51   -43.011458    2             
iter:  43  22:19:24  -5.82  -2.76   -43.018858    3             
iter:  44  22:19:28  -5.89  -2.32   -43.013750    3             
iter:  45  22:19:32  -6.30  -2.44   -43.011264    2             
iter:  46  22:19:36  -6.32  -2.75   -43.010763    2             
iter:  47  22:19:40  -5.72  -3.17   -43.022048    3             
iter:  48  22:19:44  -5.88  -2.27   -43.012392    3             
iter:  49  22:19:48  -6.59  -2.53   -43.010798    2             
iter:  50  22:19:52  -6.70  -3.28   -43.012245    3             
iter:  51  22:19:56  -6.93  -2.67   -43.011163    3             
iter:  52  22:20:00  -7.24  -3.12   -43.010816    2             
iter:  53  22:20:04  -7.49  -3.25   -43.010811    2             
iter:  54  22:20:08  -7.57  -3.19   -43.011256    2             
iter:  55  22:20:12  -7.69  -3.06   -43.010825    2             
iter:  56  22:20:16  -7.53  -3.54   -43.010998    2             
iter:  57  22:20:20  -7.45  -3.02   -43.010898    2             
iter:  58  22:20:24  -7.29  -3.46   -43.011348    2             
iter:  59  22:20:28  -7.28  -3.04   -43.010840    2             
iter:  60  22:20:32  -7.19  -3.29   -43.011023    2             
iter:  61  22:20:36  -7.50  -3.43   -43.010808    2             
iter:  62  22:20:40  -8.00  -3.49   -43.010883    2             
iter:  63  22:20:44  -8.19  -3.48   -43.010829    2             
iter:  64  22:20:48  -7.85  -3.38   -43.010910    2             
iter:  65  22:20:52  -8.19  -3.57   -43.010904    2             
iter:  66  22:20:55  -8.70  -3.86   -43.010871    2             
iter:  67  22:20:59  -8.54  -4.33   -43.010857    2             

Converged after 67 iterations.

Dipole moment: (2.077274, 1.199315, -0.205914) |e|*Ang

Energy contributions relative to reference atoms: (reference = -95516.406125)

Kinetic:       +163.428886
Potential:     -102.516497
External:        +0.000000
XC:            -103.750089
Entropy (-ST):   -0.205369
Local:           -0.070473
--------------------------
Free energy:    -43.113542
Extrapolated:   -43.010857

Fermi level: 1.88756

Warning: Showing only first 2 kpts
 Kpt  Band  Eigenvalues  Occupancy
  0    24      3.67431    0.00000
  0    25      4.07598    0.00000
  0    26      4.14796    0.00000
  0    27      4.81280    0.00000

  1    24      3.66177    0.00000
  1    25      4.14504    0.00000
  1    26      4.17513    0.00000
  1    27      4.76051    0.00000



Forces in eV/Ang:
  0 Al   -0.00000    0.00000   -0.06046
  1 Al   -0.00000    0.00000    0.08409
  2 Al    0.00000    0.00000   -0.02971
  3 Al    0.00000    0.00000    0.00427
  4 Al    0.00000    0.00000    0.01222
  5 Al    0.00000    0.00000    0.00297
  6 Al    0.00000    0.00000    0.00698
  7 Al    0.00000   -0.00000   -0.01013
  8 Al    0.00000    0.00000   -0.01304
  9 Al   -0.00000    0.00000    0.03118
 10 Al    0.00000    0.00000   -0.01445
 11 Al    0.00000    0.00000   -0.00672
 12 Al   -0.00000   -0.00000   -0.00636
 13 Al    0.00000    0.00000  -86.57530
 14 C     0.00000    0.00000   76.56796
 15 O    -0.00000    0.00000    9.99963

System changes: positions 

Initializing position-dependent things.

Density initialized from wave functions
                    
                    
                    
                    
       O            
                    
       C            
       Al           
                    
        Al          
                    
                    
                    
           Al       
                    
                    
       Al           
                    
        Al          
                    
                    
           Al       
                    
                    
       Al           
                    
        Al          
                    
                    
                    
           Al       
                    
                    
       Al           
                    
        Al          
                    
                    
           Al       
                    
                    
                    
       Al           
                    
        Al          
                    
                    
                    
                    

Positions:
   0 Al     0.000000    1.650788   15.000000
   1 Al     0.000000    0.000000   17.334567
   2 Al     1.429625    0.825394   19.669135
   3 Al     0.000000    1.650788   22.003702
   4 Al     0.000000    0.000000   24.338269
   5 Al     1.429625    0.825394   26.672837
   6 Al     0.000000    1.650788   29.007404
   7 Al     0.000000    0.000000   31.341972
   8 Al     1.429625    0.825394   33.676539
   9 Al     0.000000    1.650788   36.011106
  10 Al     0.000000    0.000000   38.345674
  11 Al     1.429625    0.825394   40.680241
  12 Al     0.000000    1.650788   43.014808
  13 Al     0.000000    0.000000   45.349376
  14 C     -0.000000    0.000000   46.517115
  15 O     -0.000000    0.000000   47.640754

Unit cell:
           periodic     x           y           z      points  spacing
  1. axis:    yes    2.859249    0.000000    0.000000    14     0.1769
  2. axis:    yes    1.429625    2.476183    0.000000    14     0.1769
  3. axis:    no     0.000000    0.000000   60.349376   336     0.1796

  Lengths:   2.859249   2.859249  60.349376
  Angles:   90.000000  90.000000  60.000000

Effective grid spacing dv^(1/3) = 0.1865

                     log10-error:    total        iterations:
           time      wfs    density  energy       fermi  poisson
iter:   1  22:21:05  +0.76   +inf   -57.215340    29            
iter:   2  22:21:09  +1.53  -0.70  -1936.870456    38            
iter:   3  22:21:13  +0.84  +0.02  -438.253950    39            
iter:   4  22:21:17  +0.76  -0.03   -56.830380    36            
iter:   5  22:21:21  +0.98  -0.26   -11.019124    33            
iter:   6  22:21:25  +0.78  -0.39   -19.801954    3             
iter:   7  22:21:29  +1.86  -0.66  -400.536391    36            
iter:   8  22:21:33  +0.57  -0.02  -104.681571    38            
iter:   9  22:21:37  +0.69  -0.39  -176.947554    34            
iter:  10  22:21:41  +0.42  -0.16  -153.650927    35            
iter:  11  22:21:45  -0.40  -0.21   -90.477849    35            
iter:  12  22:21:49  +0.21  -0.38  -198.012793    37            
iter:  13  22:21:53  -1.14  -0.13   -64.534879    37            
iter:  14  22:21:57  -0.65  -0.56  -115.066461    34            
iter:  15  22:22:01  -2.13  -0.28   -48.035646    35            
iter:  16  22:22:05  -2.50  -1.07   -53.633517    2             
iter:  17  22:22:09  -2.83  -0.79   -47.998080    3             
iter:  18  22:22:13  -2.89  -1.05   -47.341482    32            
iter:  19  22:22:17  -2.61  -1.14   -46.259864    3             
iter:  20  22:22:21  -2.90  -1.42   -46.189760    33            
iter:  21  22:22:25  -3.52  -1.46   -46.816653    3             
iter:  22  22:22:29  -3.06  -1.20   -46.021312    3             
iter:  23  22:22:33  -3.70  -1.54   -46.142314    2             
iter:  24  22:22:37  -3.60  -1.51   -46.100148    3             
iter:  25  22:22:40  -4.01  -1.49   -45.987789    3             
iter:  26  22:22:44  -3.85  -1.59   -46.177930    3             
iter:  27  22:22:48  -4.03  -1.45   -45.852555    3             
iter:  28  22:22:52  -4.88  -1.95   -45.854003    3             
iter:  29  22:22:56  -4.71  -1.93   -45.829384    3             
iter:  30  22:23:00  -5.04  -2.13   -45.843625    3             
iter:  31  22:23:04  -4.20  -1.97   -46.543876    33            
iter:  32  22:23:08  -4.13  -1.32   -45.842716    34            
iter:  33  22:23:12  -4.70  -2.04   -45.843883    3             
iter:  34  22:23:16  -4.87  -2.00   -45.826113    3             
iter:  35  22:23:20  -5.36  -2.21   -45.834917    3             
iter:  36  22:23:24  -5.77  -2.11   -45.820817    3             
iter:  37  22:23:28  -5.67  -2.38   -45.837169    3             
iter:  38  22:23:32  -5.83  -2.03   -45.821288    3             
iter:  39  22:23:36  -5.62  -2.33   -45.824007    3             
iter:  40  22:23:40  -5.49  -2.29   -45.823344    3             
iter:  41  22:23:44  -5.57  -2.28   -45.824886    3             
iter:  42  22:23:48  -5.81  -2.25   -45.818739    3             
iter:  43  22:23:52  -5.63  -2.48   -45.820040    3             
iter:  44  22:23:56  -5.51  -2.52   -45.825548    3             
iter:  45  22:24:00  -6.02  -2.25   -45.817494    3             
iter:  46  22:24:04  -6.16  -2.59   -45.817769    3             
iter:  47  22:24:08  -6.08  -2.65   -45.822540    3             
iter:  48  22:24:12  -5.99  -2.28   -45.819552    3             
iter:  49  22:24:16  -5.61  -2.48   -45.818403    3             
iter:  50  22:24:20  -5.33  -2.60   -45.839764    3             
iter:  51  22:24:24  -5.75  -2.01   -45.817750    3             
iter:  52  22:24:28  -5.89  -2.72   -45.817181    3             
iter:  53  22:24:31  -6.35  -2.73   -45.819106    3             
iter:  54  22:24:35  -6.45  -2.53   -45.817366    3             
iter:  55  22:24:39  -6.72  -2.64   -45.816692    2             
iter:  56  22:24:43  -5.52  -2.85   -45.857237    3             
iter:  57  22:24:47  -5.63  -1.93   -45.816658    2             
iter:  58  22:24:51  -6.14  -3.06   -45.817079    2             
iter:  59  22:24:55  -6.53  -2.76   -45.817493    3             
iter:  60  22:24:59  -6.66  -2.67   -45.817159    3             
iter:  61  22:25:03  -7.08  -2.90   -45.816673    3             
iter:  62  22:25:07  -7.10  -3.30   -45.816877    2             
iter:  63  22:25:11  -7.34  -2.82   -45.816586    2             
iter:  64  22:25:15  -7.24  -3.23   -45.817130    2             
iter:  65  22:25:19  -6.87  -2.90   -45.817067    2             
iter:  66  22:25:23  -6.72  -2.84   -45.816790    3             
iter:  67  22:25:27  -7.06  -3.10   -45.816563    3             
iter:  68  22:25:31  -7.36  -3.31   -45.816777    2             
iter:  69  22:25:35  -7.45  -3.26   -45.816711    2             
iter:  70  22:25:39  -7.61  -3.27   -45.816669    2             
iter:  71  22:25:43  -7.23  -2.96   -45.816995    2             
iter:  72  22:25:47  -7.01  -2.97   -45.816684    2             
iter:  73  22:25:51  -7.13  -3.25   -45.816739    2             
iter:  74  22:25:55  -7.25  -3.34   -45.816679    2             
iter:  75  22:25:58  -7.39  -3.44   -45.816727    2             
iter:  76  22:26:02  -7.77  -3.01   -45.816863    2             
iter:  77  22:26:06  -7.55  -3.25   -45.816736    2             
iter:  78  22:26:10  -7.61  -3.02   -45.816717    2             
iter:  79  22:26:14  -7.86  -3.61   -45.816629    2             
iter:  80  22:26:18  -8.02  -3.47   -45.816638    2             
iter:  81  22:26:22  -7.84  -3.43   -45.816856    2             
iter:  82  22:26:26  -7.57  -3.19   -45.816700    2             
iter:  83  22:26:30  -7.88  -3.58   -45.816903    2             
iter:  84  22:26:34  -7.96  -3.17   -45.816656    2             
iter:  85  22:26:38  -8.29  -3.71   -45.816690    2             
iter:  86  22:26:42  -8.61  -3.64   -45.816690    2             
iter:  87  22:26:46  -8.15  -4.06   -45.816694    2             

Converged after 87 iterations.

Dipole moment: (2.078627, 1.200096, -0.205873) |e|*Ang

Energy contributions relative to reference atoms: (reference = -95516.406125)

Kinetic:       +153.972899
Potential:      -96.809645
External:        +0.000000
XC:            -102.740821
Entropy (-ST):   -0.204461
Local:           -0.136896
--------------------------
Free energy:    -45.918925
Extrapolated:   -45.816694

Fermi level: 1.88590

Warning: Showing only first 2 kpts
 Kpt  Band  Eigenvalues  Occupancy
  0    24      3.65752    0.00000
  0    25      4.17135    0.00000
  0    26      4.26343    0.00000
  0    27      4.79535    0.00000

  1    24      3.63920    0.00000
  1    25      4.25394    0.00000
  1    26      4.29131    0.00000
  1    27      4.74016    0.00000



Forces in eV/Ang:
  0 Al    0.00000    0.00000   -0.05756
  1 Al    0.00000    0.00000    0.08634
  2 Al   -0.00000    0.00000   -0.02624
  3 Al    0.00000   -0.00000    0.00866
  4 Al   -0.00000    0.00000    0.01502
  5 Al    0.00000    0.00000    0.00459
  6 Al    0.00000    0.00000    0.00852
  7 Al    0.00000    0.00000   -0.01050
  8 Al    0.00000    0.00000   -0.01435
  9 Al   -0.00000    0.00000    0.03585
 10 Al    0.00000    0.00000   -0.00971
 11 Al    0.00000    0.00000   -0.01195
 12 Al    0.00000    0.00000   -0.01360
 13 Al   -0.00000    0.00000  -76.37801
[...]
iter:  82  23:22:14  -6.62  -3.33   -59.648897    2             
iter:  83  23:22:18  -6.78  -2.61   -59.647105    2             
iter:  84  23:22:22  -7.53  -3.43   -59.647469    2             
iter:  85  23:22:26  -7.66  -3.01   -59.647043    2             
iter:  86  23:22:30  -8.14  -3.35   -59.647062    2             
iter:  87  23:22:34  -7.78  -3.51   -59.647096    2             
iter:  88  23:22:38  -6.83  -3.61   -59.647943    2             
iter:  89  23:22:42  -6.98  -2.75   -59.647106    2             
iter:  90  23:22:46  -7.76  -3.49   -59.647136    2             
iter:  91  23:22:50  -7.42  -3.10   -59.647225    2             
iter:  92  23:22:54  -7.74  -3.40   -59.647115    2             
iter:  93  23:22:58  -8.41  -3.95   -59.647104    2             
iter:  94  23:23:02  -7.94  -3.76   -59.647246    2             
iter:  95  23:23:06  -7.90  -3.26   -59.647121    2             
iter:  96  23:23:10  -8.15  -3.54   -59.647243    2             
iter:  97  23:23:14  -7.61  -3.35   -59.647114    2             
iter:  98  23:23:17  -7.80  -3.50   -59.647112    2             
iter:  99  23:23:21  -8.72  -3.55   -59.647134    2             
iter: 100  23:23:25  -8.19  -3.96   -59.647137    2             
iter: 101  23:23:29  -8.22  -3.46   -59.647146    2             
iter: 102  23:23:33  -8.33  -3.76   -59.647121    2             
iter: 103  23:23:37  -8.33  -3.59   -59.647166    2             
iter: 104  23:23:41  -8.00  -3.83   -59.647196    2             
iter: 105  23:23:45  -8.29  -3.53   -59.647125    2             
iter: 106  23:23:49  -8.74  -3.82   -59.647167    2             
iter: 107  23:23:53  -8.79  -3.75   -59.647135    2             
iter: 108  23:23:57  -9.02  -3.75   -59.647151    2             
iter: 109  23:24:01  -8.69  -4.01   -59.647145    2             

Converged after 109 iterations.

Dipole moment: (2.086437, 1.204605, -0.203322) |e|*Ang

Energy contributions relative to reference atoms: (reference = -95516.406125)

Kinetic:        +84.737011
Potential:      -49.221568
External:        +0.000000
XC:             -94.719728
Entropy (-ST):   -0.200206
Local:           -0.342756
--------------------------
Free energy:    -59.747248
Extrapolated:   -59.647145

Fermi level: 1.92883

Warning: Showing only first 2 kpts
 Kpt  Band  Eigenvalues  Occupancy
  0    24      3.57703    0.00000
  0    25      4.64020    0.00000
  0    26      5.04754    0.00000
  0    27      5.14924    0.00000

  1    24      3.54288    0.00000
  1    25      4.62676    0.00000
  1    26      5.13861    0.00000
  1    27      5.18026    0.00000



Forces in eV/Ang:
  0 Al   -0.00000    0.00000   -0.06426
  1 Al    0.00000    0.00000    0.08077
  2 Al    0.00000   -0.00000   -0.03133
  3 Al   -0.00000    0.00000    0.00690
  4 Al    0.00000   -0.00000    0.01151
  5 Al   -0.00000    0.00000   -0.00189
  6 Al    0.00000   -0.00000    0.01025
  7 Al    0.00000   -0.00000   -0.00869
  8 Al   -0.00000    0.00000   -0.02221
  9 Al   -0.00000    0.00000    0.04118
 10 Al   -0.00000   -0.00000    0.01220
 11 Al   -0.00000    0.00000   -0.02158
 12 Al   -0.00000    0.00000   -0.03322
 13 Al   -0.00000    0.00000  -19.67708
 14 C     0.00000    0.00000   17.66498
 15 O    -0.00000    0.00000    2.02121

System changes: positions 

Initializing position-dependent things.

Density initialized from wave functions
                    
                    
                    
                    
       O            
                    
       C            
                    
       Al           
                    
        Al          
                    
                    
           Al       
                    
                    
       Al           
                    
        Al          
                    
                    
           Al       
                    
                    
                    
       Al           
                    
        Al          
                    
                    
           Al       
                    
                    
       Al           
                    
        Al          
                    
                    
           Al       
                    
                    
                    
       Al           
                    
        Al          
                    
                    
                    
                    

Positions:
   0 Al     0.000000    1.650788   15.000000
   1 Al     0.000000    0.000000   17.334567
   2 Al     1.429625    0.825394   19.669135
   3 Al     0.000000    1.650788   22.003702
   4 Al     0.000000    0.000000   24.338269
   5 Al     1.429625    0.825394   26.672837
   6 Al     0.000000    1.650788   29.007404
   7 Al     0.000000    0.000000   31.341972
   8 Al     1.429625    0.825394   33.676539
   9 Al     0.000000    1.650788   36.011106
  10 Al     0.000000    0.000000   38.345674
  11 Al     1.429625    0.825394   40.680241
  12 Al     0.000000    1.650788   43.014808
  13 Al     0.000000    0.000000   45.349376
  14 C      0.000000    0.000000   46.871574
  15 O     -0.000000   -0.000000   48.040754

Unit cell:
           periodic     x           y           z      points  spacing
  1. axis:    yes    2.859249    0.000000    0.000000    14     0.1769
  2. axis:    yes    1.429625    2.476183    0.000000    14     0.1769
  3. axis:    no     0.000000    0.000000   60.349376   336     0.1796

  Lengths:   2.859249   2.859249  60.349376
  Angles:   90.000000  90.000000  60.000000

Effective grid spacing dv^(1/3) = 0.1865

                     log10-error:    total        iterations:
           time      wfs    density  energy       fermi  poisson
iter:   1  23:24:07  +0.76   +inf   -71.215921    34            
iter:   2  23:24:11  +1.41  -0.72  -1797.906516    35            
iter:   3  23:24:15  +0.93  +0.02  -455.439281    38            
iter:   4  23:24:19  +0.72  -0.01   -72.730057    33            
iter:   5  23:24:23  +0.96  -0.28   -25.690132    35            
iter:   6  23:24:27  +0.77  -0.41   -38.076335    2             
iter:   7  23:24:31  +1.88  -0.62  -488.635003    35            
iter:   8  23:24:34  +0.69  +0.01  -110.896031    37            
iter:   9  23:24:38  +0.77  -0.46  -283.514676    36            
iter:  10  23:24:42  +0.44  -0.11  -167.341187    38            
iter:  11  23:24:46  -0.38  -0.21   -95.835130    36            
iter:  12  23:24:50  -0.70  -0.42  -120.800359    34            
iter:  13  23:24:54  -0.37  -0.36   -98.632169    33            
iter:  14  23:24:58  -1.08  -0.44   -96.060017    35            
iter:  15  23:25:02  -1.98  -0.44   -64.629146    33            
iter:  16  23:25:06  -2.50  -0.94   -64.626018    31            
iter:  17  23:25:10  -2.80  -0.94   -60.950767    33            
iter:  18  23:25:14  -2.87  -1.37   -61.962706    33            
iter:  19  23:25:18  -3.04  -1.13   -61.804543    33            
iter:  20  23:25:22  -2.78  -1.15   -61.331650    3             
iter:  21  23:25:26  -2.87  -1.21   -66.011608    3             
iter:  22  23:25:30  -3.04  -0.83   -60.976698    3             
iter:  23  23:25:34  -3.34  -1.32   -61.028283    33            
iter:  24  23:25:38  -3.76  -1.31   -60.538257    3             
iter:  25  23:25:42  -3.81  -1.59   -60.760841    32            
iter:  26  23:25:46  -4.10  -1.45   -60.408103    34            
iter:  27  23:25:50  -4.20  -1.84   -60.848852    3             
iter:  28  23:25:54  -4.11  -1.34   -60.440257    3             
iter:  29  23:25:58  -3.71  -1.75   -60.919333    34            
iter:  30  23:26:02  -3.67  -1.38   -60.384714    34            
iter:  31  23:26:06  -3.72  -1.86   -60.655603    32            
iter:  32  23:26:10  -3.84  -1.45   -60.453882    32            
iter:  33  23:26:14  -4.56  -1.68   -60.407583    3             
iter:  34  23:26:17  -4.91  -1.75   -60.343741    3             
iter:  35  23:26:21  -4.65  -2.20   -60.442278    3             
iter:  36  23:26:25  -5.03  -1.74   -60.349886    3             
iter:  37  23:26:29  -4.52  -2.06   -60.376071    2             
iter:  38  23:26:33  -4.21  -1.90   -60.589173    3             
iter:  39  23:26:37  -4.45  -1.52   -60.454894    2             
iter:  40  23:26:41  -5.15  -1.64   -60.339309    2             
iter:  41  23:26:45  -5.42  -2.22   -60.337417    3             
iter:  42  23:26:49  -5.47  -2.27   -60.335726    3             
iter:  43  23:26:53  -5.10  -2.27   -60.343453    3             
iter:  44  23:26:57  -4.38  -2.13   -60.606481    3             
iter:  45  23:27:01  -4.45  -1.52   -60.403650    3             
iter:  46  23:27:05  -5.14  -1.75   -60.333606    3             
iter:  47  23:27:09  -5.29  -2.31   -60.341886    3             
iter:  48  23:27:13  -5.74  -2.17   -60.330016    3             
iter:  49  23:27:17  -6.16  -2.50   -60.328036    2             
iter:  50  23:27:21  -5.07  -2.78   -60.337405    3             
iter:  51  23:27:25  -5.37  -2.19   -60.345771    3             
iter:  52  23:27:29  -5.63  -2.10   -60.334388    2             
iter:  53  23:27:33  -5.24  -2.28   -60.352008    2             
iter:  54  23:27:37  -5.34  -2.04   -60.337862    2             
iter:  55  23:27:41  -5.89  -2.17   -60.327814    2             
iter:  56  23:27:45  -6.31  -2.79   -60.327269    2             
iter:  57  23:27:49  -6.18  -2.97   -60.328165    3             
iter:  58  23:27:53  -5.87  -2.60   -60.330377    2             
iter:  59  23:27:57  -6.16  -2.46   -60.329355    2             
iter:  60  23:28:01  -5.98  -2.57   -60.341347    3             
iter:  61  23:28:04  -5.65  -2.16   -60.331109    2             
iter:  62  23:28:08  -6.08  -2.36   -60.326841    2             
iter:  63  23:28:12  -6.72  -3.13   -60.327183    2             
iter:  64  23:28:16  -6.66  -2.89   -60.327095    2             
iter:  65  23:28:20  -6.97  -2.88   -60.326994    2             
iter:  66  23:28:24  -6.55  -3.02   -60.328651    2             
iter:  67  23:28:28  -5.65  -2.56   -60.346766    3             
iter:  68  23:28:32  -5.85  -2.08   -60.326987    2             
iter:  69  23:28:36  -6.81  -3.24   -60.327048    2             
iter:  70  23:28:40  -7.24  -3.16   -60.326963    2             
iter:  71  23:28:44  -7.55  -3.37   -60.326973    2             
iter:  72  23:28:48  -7.16  -3.33   -60.327475    2             
iter:  73  23:28:52  -6.25  -2.90   -60.328278    2             
iter:  74  23:28:56  -6.13  -2.60   -60.327488    2             
iter:  75  23:29:00  -6.87  -2.88   -60.326985    2             
iter:  76  23:29:04  -7.57  -3.37   -60.327044    2             
iter:  77  23:29:08  -7.97  -3.45   -60.327065    2             
iter:  78  23:29:12  -8.02  -3.33   -60.327002    2             
iter:  79  23:29:16  -7.77  -3.43   -60.327097    2             
iter:  80  23:29:20  -6.82  -3.41   -60.328427    2             
iter:  81  23:29:24  -6.77  -2.58   -60.327059    2             
iter:  82  23:29:28  -7.67  -3.46   -60.326976    2             
iter:  83  23:29:32  -8.12  -3.50   -60.326978    2             
iter:  84  23:29:36  -8.48  -3.37   -60.326996    2             
iter:  85  23:29:40  -8.69  -3.70   -60.326985    2             
iter:  86  23:29:43  -7.47  -3.77   -60.327543    2             
iter:  87  23:29:47  -7.54  -2.92   -60.326991    2             
iter:  88  23:29:51  -8.31  -3.56   -60.327037    2             
iter:  89  23:29:55  -8.37  -3.72   -60.327073    2             
iter:  90  23:29:59  -8.46  -3.47   -60.326995    2             
iter:  91  23:30:03  -8.78  -3.93   -60.327002    2             
iter:  92  23:30:07  -8.31  -4.09   -60.326998    2             

Converged after 92 iterations.

Dipole moment: (2.087129, 1.205004, -0.201125) |e|*Ang

Energy contributions relative to reference atoms: (reference = -95516.406125)

Kinetic:        +79.461193
Potential:      -45.311078
External:        +0.000000
XC:             -94.030755
Entropy (-ST):   -0.200184
Local:           -0.346267
--------------------------
Free energy:    -60.427090
Extrapolated:   -60.326998

Fermi level: 1.93923

Warning: Showing only first 2 kpts
 Kpt  Band  Eigenvalues  Occupancy
  0    24      3.57339    0.00000
  0    25      4.64473    0.00000
  0    26      5.11821    0.00000
  0    27      5.23288    0.00000

  1    24      3.53841    0.00000
  1    25      4.62478    0.00000
  1    26      5.21828    0.00000
  1    27      5.26388    0.00000



Forces in eV/Ang:
  0 Al    0.00000    0.00000   -0.06439
  1 Al    0.00000    0.00000    0.08078
  2 Al    0.00000    0.00000   -0.03206
  3 Al    0.00000    0.00000    0.00618
  4 Al    0.00000    0.00000    0.01062
  5 Al    0.00000    0.00000   -0.00347
  6 Al   -0.00000    0.00000    0.00902
  7 Al    0.00000    0.00000   -0.00923
  8 Al   -0.00000    0.00000   -0.02299
  9 Al    0.00000    0.00000    0.04090
 10 Al   -0.00000    0.00000    0.01416
 11 Al    0.00000    0.00000   -0.02130
 12 Al    0.00000    0.00000   -0.03645
 13 Al    0.00000    0.00000  -16.37533
 14 C     0.00000    0.00000   14.74642
 15 O     0.00000    0.00000    1.64373

System changes: positions 

Initializing position-dependent things.

Density initialized from wave functions
                    
                    
                    
                    
       O            
                    
       C            
                    
       Al           
                    
        Al          
                    
                    
           Al       
                    
                    
       Al           
                    
                    
        Al          
                    
                    
           Al       
                    
                    
       Al           
                    
        Al          
                    
                    
                    
           Al       
                    
                    
       Al           
                    
        Al          
                    
                    
           Al       
                    
                    
                    
       Al           
                    
        Al          
                    
                    
                    
                    

Positions:
   0 Al     0.000000    1.650788   15.000000
   1 Al     0.000000    0.000000   17.334567
   2 Al     1.429625    0.825394   19.669135
   3 Al     0.000000    1.650788   22.003702
   4 Al     0.000000    0.000000   24.338269
   5 Al     1.429625    0.825394   26.672837
   6 Al     0.000000    1.650788   29.007404
   7 Al     0.000000    0.000000   31.341972
   8 Al     1.429625    0.825394   33.676539
   9 Al     0.000000    1.650788   36.011106
  10 Al     0.000000    0.000000   38.345674
  11 Al     1.429625    0.825394   40.680241
  12 Al     0.000000    1.650788   43.014808
  13 Al     0.000000    0.000000   45.349376
  14 C      0.000000    0.000000   46.909470
  15 O     -0.000000   -0.000000   48.080754

Unit cell:
           periodic     x           y           z      points  spacing
  1. axis:    yes    2.859249    0.000000    0.000000    14     0.1769
  2. axis:    yes    1.429625    2.476183    0.000000    14     0.1769
  3. axis:    no     0.000000    0.000000   60.349376   336     0.1796

  Lengths:   2.859249   2.859249  60.349376
  Angles:   90.000000  90.000000  60.000000

Effective grid spacing dv^(1/3) = 0.1865

                     log10-error:    total        iterations:
           time      wfs    density  energy       fermi  poisson
iter:   1  23:30:13  +0.76   +inf   -75.019445    35            
iter:   2  23:30:17  +1.62  -0.65  -2231.583834    36            
iter:   3  23:30:21  +1.04  +0.03  -631.628906    37            
iter:   4  23:30:25  +0.62  +0.01  -173.375045    36            
iter:   5  23:30:29  +0.90  -0.23   -67.086470    35            
iter:   6  23:30:33  +0.58  -0.33   -54.775444    32            
iter:   7  23:30:37  +2.44  -0.46  -2170.261815    31            
iter:   8  23:30:41  +2.29  +0.12  -1000.684488    36            
iter:   9  23:30:45  +1.61  +0.09  -429.654136    37            
iter:  10  23:30:49  +1.33  +0.09    29.362012    34            
iter:  11  23:30:53  +1.76  -0.41  -137.859972    34            
iter:  12  23:30:57  +1.52  -0.30  -149.036472    32            
iter:  13  23:31:01  +1.25  -0.31  -245.099984    37            
iter:  14  23:31:04  +0.42  -0.11  -114.117744    33            
iter:  15  23:31:08  +1.54  -0.41  -1110.270874    34            
iter:  16  23:31:12  +1.50  +0.13  -938.147149    37            
iter:  17  23:31:16  +1.09  +0.05  -223.666233    38            
iter:  18  23:31:20  +1.44  -0.16   -61.815128    36            
iter:  19  23:31:24  +1.25  -0.43  -251.068842    36            
iter:  20  23:31:28  +0.52  -0.13  -143.068929    33            
iter:  21  23:31:32  +0.55  -0.25   -69.135851    33            
iter:  22  23:31:36  -0.20  -0.77  -114.166693    36            
iter:  23  23:31:40  +0.18  -0.36   -71.663054    2             
iter:  24  23:31:44  -0.21  -0.76   -63.597034    32            
iter:  25  23:31:48  -0.27  -1.07   -97.415318    3             
iter:  26  23:31:52  -1.18  -0.43   -64.144079    3             
iter:  27  23:31:56  -1.14  -1.01  -119.654979    35            
iter:  28  23:32:00  -0.71  -0.37   -81.874052    35            
iter:  29  23:32:04  -1.65  -0.56   -91.661933    33            
iter:  30  23:32:08  -2.34  -0.52   -64.533497    3             
iter:  31  23:32:12  -2.09  -1.01   -87.729238    33            
iter:  32  23:32:16  -2.62  -0.50   -67.704060    32            
iter:  33  23:32:20  -1.71  -0.81   -64.470887    33            
iter:  34  23:32:24  -2.05  -0.94   -69.468718    34            
iter:  35  23:32:28  -2.77  -0.78   -61.888142    35            
iter:  36  23:32:32  -3.10  -1.25   -63.595239    33            
iter:  37  23:32:36  -3.09  -1.07   -61.427487    33            
iter:  38  23:32:40  -3.68  -1.38   -62.469183    3             
iter:  39  23:32:44  -3.05  -1.13   -64.468371    32            
iter:  40  23:32:48  -3.30  -0.93   -61.333479    33            
iter:  41  23:32:52  -3.30  -1.42   -64.923406    31            
iter:  42  23:32:56  -3.42  -0.93   -61.262146    31            
iter:  43  23:33:00  -4.10  -1.48   -61.111873    3             
iter:  44  23:33:04  -4.35  -1.56   -61.065862    3             
iter:  45  23:33:08  -5.02  -1.60   -61.041280    2             
iter:  46  23:33:12  -3.95  -1.65   -61.617356    3             
iter:  47  23:33:15  -3.15  -1.27   -61.236472    34            
iter:  48  23:33:19  -4.12  -1.48   -60.930348    3             
iter:  49  23:33:23  -3.90  -1.91   -61.031143    3             
iter:  50  23:33:27  -4.34  -1.65   -60.929458    2             
iter:  51  23:33:31  -5.15  -1.94   -60.902830    2             
iter:  52  23:33:35  -5.24  -2.24   -60.948183    3             
iter:  53  23:33:39  -5.52  -1.84   -60.899000    2             
iter:  54  23:33:43  -5.78  -2.39   -60.901291    2             
iter:  55  23:33:47  -5.25  -2.35   -60.907889    3             
iter:  56  23:33:51  -5.35  -2.19   -60.932175    3             
iter:  57  23:33:55  -5.25  -1.96   -60.903792    2             
iter:  58  23:33:59  -4.88  -2.25   -61.034381    2             
iter:  59  23:34:03  -4.78  -1.61   -60.899194    3             
iter:  60  23:34:07  -5.28  -2.50   -60.896695    2             
iter:  61  23:34:11  -5.79  -2.62   -60.896570    2             
iter:  62  23:34:15  -6.11  -2.65   -60.899673    3             
iter:  63  23:34:19  -6.03  -2.36   -60.897581    2             
iter:  64  23:34:23  -5.62  -2.55   -60.925380    3             
iter:  65  23:34:27  -5.80  -1.97   -60.896148    2             
iter:  66  23:34:31  -5.83  -2.70   -60.897000    2             
iter:  67  23:34:35  -6.06  -2.62   -60.896202    2             
iter:  68  23:34:39  -6.60  -2.76   -60.896627    2             
