
  ___ ___ ___ _ _ _  
 |   |   |_  | | | | 
 | | | | | . | | | | 
 |__ |  _|___|_____|  1.3.0
 |___|_|             

User:   analbin@hebbe11-5
Date:   Sat Feb 17 23:01:33 2018
Arch:   x86_64
Pid:    7415
Python: 2.7.14
gpaw:   /apps/Hebbe/software/MPI/intel/2017.4.196-GCC-6.4.0-2.28/impi/2017.3.196/GPAW/1.3.0-Python-2.7.14/lib/python2.7/site-packages/gpaw
_gpaw:  /apps/Hebbe/software/MPI/intel/2017.4.196-GCC-6.4.0-2.28/impi/2017.3.196/GPAW/1.3.0-Python-2.7.14/bin/
       gpaw-python
ase:    /apps/Hebbe/software/MPI/intel/2017.4.196-GCC-6.4.0-2.28/impi/2017.3.196/ASE/3.15.0-Python-2.7.14/lib/python2.7/site-packages/ase-3.15.0-py2.7.egg/ase (version 3.15.0)
numpy:  /apps/Hebbe/software/MPI/intel/2017.4.196-GCC-6.4.0-2.28/impi/2017.3.196/Python/2.7.14/lib/python2.7/site-packages/numpy-1.13.1-py2.7-linux-x86_64.egg/numpy (version 1.13.1)
scipy:  /apps/Hebbe/software/MPI/intel/2017.4.196-GCC-6.4.0-2.28/impi/2017.3.196/Python/2.7.14/lib/python2.7/site-packages/scipy-0.19.1-py2.7-linux-x86_64.egg/scipy (version 0.19.1)
units:  Angstrom and eV
cores:  20

Input parameters:
  h: 0.18
  kpts: [14 14  1]
  mixer: {backend: pulay,
          beta: 0.1,
          method: separate,
          nmaxold: 5,
          weight: 50.0}
  mode: {ecut: 600.0,
         name: pw}
  xc: PBE

System changes: positions, numbers, cell, pbc, initial_charges, initial_magmoms 

Initialize ...

Al-setup:
  name: Aluminium
  id: 0292cae29f5d6237e50f6abdd43a7bdd
  Z: 13
  valence: 3
  core: 10
  charge: 0.0
  file: /c3se/apps/Glenn/gpaw/gpaw-setups-0.9.11271/Al.PBE.gz
  cutoffs: 1.08(comp), 1.91(filt), 2.36(core), lmax=2
  valence states:
                energy  radius
    3s(2.00)    -7.753   1.085
    3p(1.00)    -2.712   1.085
    *s          19.459   1.085
    *p          24.499   1.085
    *d           0.000   1.085

  Using partial waves for Al as LCAO basis

Reference energy: -46223.962854

Spin-paired calculation

Occupation numbers:
  Fermi-Dirac: width=0.1000 eV

Convergence criteria:
  Maximum total energy change: 0.0005 eV / electron
  Maximum integral of absolute density change: 0.0001 electrons
  Maximum integral of absolute eigenstate change: 4e-08 eV^2
  Maximum number of iterations: 333

Symmetries present (total): 6

  ( 1  0  0)  ( 1 -1  0)  ( 0  1  0)  ( 0 -1  0)  (-1  1  0)  (-1  0  0)
  ( 0  1  0)  ( 0 -1  0)  ( 1  0  0)  ( 1 -1  0)  (-1  0  0)  (-1  1  0)
  ( 0  0  1)  ( 0  0  1)  ( 0  0  1)  ( 0  0  1)  ( 0  0  1)  ( 0  0  1)
Note: your k-points are not as symmetric as your crystal!

196 k-points: 14 x 14 x 1 Monkhorst-Pack grid
56 k-points in the irreducible part of the Brillouin zone
       k-points in crystal coordinates                weights
   0:     0.03571429   -0.03571429    0.00000000          2/196
   1:     0.03571429    0.03571429    0.00000000          2/196
   2:     0.10714286   -0.10714286    0.00000000          2/196
   3:     0.10714286   -0.03571429    0.00000000          4/196
   4:     0.10714286    0.03571429    0.00000000          4/196
   5:     0.10714286    0.10714286    0.00000000          2/196
   6:     0.17857143   -0.17857143    0.00000000          2/196
   7:     0.17857143   -0.10714286    0.00000000          4/196
   8:     0.17857143   -0.03571429    0.00000000          4/196
   9:     0.17857143    0.03571429    0.00000000          4/196
          ...
  55:     0.46428571    0.46428571    0.00000000          2/196

Wave functions: Plane wave expansion
  Cutoff energy: 600.000 eV
  Number of coefficients (min, max): 6811, 6881
  Using FFTW library
  Eigensolver: None  MatrixOperator buffer_size: default value or 
                              see value of nblock in input file
Diagonalizer layout: Serial LAPACKOrthonormalizer layout: Serial LAPACK 

Davidson(niter=1, smin=None, normalize=True) 

Densities:
  Coarse grid: 14*14*162 grid
  Fine grid: 28*28*324 grid
  Total Charge: 0.000000 

Density mixing:
  Method: separate
  Backend: pulay
  Linear mixing parameter: 0.1
  Mixing with 5 old densities
  Damping of long wave oscillations: 50 

Hamiltonian:
  XC and Coulomb potentials evaluated on a 28*28*324 grid
  Using the PBE Exchange-Correlation functional
 

Memory estimate:
  Process memory now: 143.56 MiB
  Calculator: 32.95 MiB
    Density: 13.41 MiB
      Arrays: 6.30 MiB
      Localized functions: 4.69 MiB
      Mixer: 2.42 MiB
    Hamiltonian: 4.21 MiB
      Arrays: 4.12 MiB
      XC: 0.00 MiB
      Poisson: 0.00 MiB
      vbar: 0.10 MiB
    Wavefunctions: 15.32 MiB
      Arrays psit_nG: 5.88 MiB
      Eigensolver: 3.59 MiB
      Projections: 0.08 MiB
      Projectors: 1.46 MiB
      Overlap op: 2.95 MiB
      PW-descriptor: 1.37 MiB

Total number of cores used: 20
Parallelization over k-points: 20

Number of atoms: 7
Number of atomic orbitals: 28
Number of bands in calculation: 28
Bands to converge: occupied states only
Number of valence electrons: 21

... initialized

Initializing position-dependent things.

Density initialized from atomic densities
Creating initial wave functions:
  28 bands from LCAO basis set

                    
                    
                    
                    
       Al           
                    
        Al          
                    
                    
                    
           Al       
                    
                    
       Al           
                    
        Al          
                    
                    
           Al       
                    
                    
       Al           
                    
                    
                    
                    

Positions:
   0 Al     0.000000    0.000000    7.500000
   1 Al     1.429625    0.825394    9.834567
   2 Al     0.000000    1.650788   12.169135
   3 Al     0.000000    0.000000   14.503702
   4 Al     1.429625    0.825394   16.838269
   5 Al     0.000000    1.650788   19.172837
   6 Al     0.000000    0.000000   21.507404

Unit cell:
           periodic     x           y           z      points  spacing
  1. axis:    yes    2.859249    0.000000    0.000000    14     0.1769
  2. axis:    yes    1.429625    2.476183    0.000000    14     0.1769
  3. axis:    no     0.000000    0.000000   29.007404   162     0.1791

  Lengths:   2.859249   2.859249  29.007404
  Angles:   90.000000  90.000000  60.000000

Effective grid spacing dv^(1/3) = 0.1863

                     log10-error:    total        iterations:
           time      wfs    density  energy       fermi  poisson
iter:   1  23:01:35  +1.61   +inf   -25.374725    3             
iter:   2  23:01:36  -0.16   +inf   -25.628946    3             
iter:   3  23:01:36  -1.09   +inf   -25.660262    2             
iter:   4  23:01:37  -1.58  -0.87   -25.891426    32            
iter:   5  23:01:38  -2.09  -0.91   -25.664400    32            
iter:   6  23:01:39  -1.96  -0.94   -25.440280    31            
iter:   7  23:01:40  -2.07  -1.24   -25.464673    3             
iter:   8  23:01:41  -2.38  -1.58   -25.433451    3             
iter:   9  23:01:42  -2.90  -2.11   -25.432300    2             
iter:  10  23:01:43  -3.11  -2.25   -25.431208    2             
iter:  11  23:01:44  -3.51  -2.70   -25.431321    2             
iter:  12  23:01:45  -3.76  -2.76   -25.431487    2             
iter:  13  23:01:46  -4.01  -2.68   -25.431352    2             
iter:  14  23:01:47  -4.30  -3.20   -25.431364    2             
iter:  15  23:01:48  -4.59  -3.19   -25.431472    2             
iter:  16  23:01:49  -4.86  -2.91   -25.431376    2             
iter:  17  23:01:50  -5.13  -3.55   -25.431371    2             
iter:  18  23:01:51  -5.39  -3.71   -25.431373    2             
iter:  19  23:01:52  -5.63  -3.78   -25.431375    2             
iter:  20  23:01:53  -5.77  -3.85   -25.431375    2             
iter:  21  23:01:54  -6.01  -3.60   -25.431380    2             
iter:  22  23:01:54  -6.27  -3.62   -25.431378    2             
iter:  23  23:01:55  -6.61  -4.04   -25.431377    2             
iter:  24  23:01:56  -6.75  -4.28   -25.431377    2             
iter:  25  23:01:57  -7.07  -4.44   -25.431377    2             
iter:  26  23:01:58  -7.31  -4.57   -25.431376    2             
iter:  27  23:01:59  -7.61  -4.47   -25.431377    2             

Converged after 27 iterations.

Dipole moment: (-0.000000, -0.000000, -0.000082) |e|*Ang

Energy contributions relative to reference atoms: (reference = -46223.962854)

Kinetic:        +22.311249
Potential:      -10.549665
External:        +0.000000
XC:             -37.104591
Entropy (-ST):   -0.098913
Local:           -0.038914
--------------------------
Free energy:    -25.480834
Extrapolated:   -25.431377

Fermi level: 2.29950

Warning: Showing only first 2 kpts
 Kpt  Band  Eigenvalues  Occupancy
  0     8      0.37384    0.02041
  0     9      2.22550    0.01382
  0    10      4.02475    0.00000
  0    11      5.47735    0.00000

  1     8      0.31621    0.02041
  1     9      2.16875    0.01606
  1    10      3.96877    0.00000
  1    11      5.42016    0.00000


Timing:                              incl.     excl.
-----------------------------------------------------------
Hamiltonian:                         0.253     0.001   0.0% |
 Atomic:                             0.053     0.053   0.2% |
  XC Correction:                     0.000     0.000   0.0% |
 Calculate atomic Hamiltonians:      0.046     0.046   0.2% |
 Communicate:                        0.000     0.000   0.0% |
 Initialize Hamiltonian:             0.000     0.000   0.0% |
 Poisson:                            0.001     0.001   0.0% |
 XC 3D grid:                         0.152     0.152   0.6% |
LCAO initialization:                 0.748     0.020   0.1% |
 LCAO eigensolver:                   0.280     0.000   0.0% |
  Calculate projections:             0.000     0.000   0.0% |
  DenseAtomicCorrection:             0.001     0.001   0.0% |
  Distribute overlap matrix:         0.000     0.000   0.0% |
  Orbital Layouts:                   0.000     0.000   0.0% |
  Potential matrix:                  0.277     0.277   1.0% |
  Sum over cells:                    0.001     0.001   0.0% |
 LCAO to grid:                       0.116     0.116   0.4% |
 Set positions (LCAO WFS):           0.333     0.000   0.0% |
  Basic WFS set positions:           0.001     0.001   0.0% |
  Basis functions set positions:     0.000     0.000   0.0% |
  TCI: Calculate S, T, P:            0.332     0.332   1.3% ||
PWDescriptor:                        0.007     0.007   0.0% |
SCF-cycle:                          24.662     4.735  17.9% |------|
 Davidson:                           6.178     3.045  11.5% |----|
  calc. matrices:                    2.553     2.553   9.6% |---|
  diagonalize:                       0.052     0.052   0.2% |
  rotate_psi:                        0.528     0.528   2.0% ||
 Density:                            5.404     0.001   0.0% |
  Atomic density matrices:           0.040     0.040   0.1% |
  Mix:                               2.447     2.447   9.2% |---|
  Multipole moments:                 0.006     0.006   0.0% |
  Pseudo density:                    2.911     2.608   9.8% |---|
   Symmetrize density:               0.303     0.303   1.1% |
 Hamiltonian:                        5.595     0.031   0.1% |
  Atomic:                            1.253     1.253   4.7% |-|
   XC Correction:                    0.000     0.000   0.0% |
  Calculate atomic Hamiltonians:     0.270     0.270   1.0% |
  Communicate:                       0.003     0.003   0.0% |
  Poisson:                           0.030     0.030   0.1% |
  XC 3D grid:                        4.007     4.007  15.1% |-----|
 Orthonormalize:                     0.043     0.000   0.0% |
  Band Layouts:                      0.000     0.000   0.0% |
   Inverse Cholesky:                 0.000     0.000   0.0% |
  calc_s_matrix:                     0.003     0.003   0.0% |
  projections:                       0.032     0.032   0.1% |
  rotate_psi:                        0.007     0.007   0.0% |
 Subspace diag:                      2.707     0.007   0.0% |
  Band Layouts:                      0.012     0.001   0.0% |
   Diagonalize:                      0.010     0.010   0.0% |
   Distribute results:               0.001     0.001   0.0% |
  calc_h_matrix:                     2.305     2.305   8.7% |--|
  rotate_psi:                        0.383     0.383   1.4% ||
Set symmetry:                        0.122     0.122   0.5% |
Other:                               0.707     0.707   2.7% ||
-----------------------------------------------------------
Total:                                        26.498 100.0%

Memory usage: 147.20 MiB
Date: Sat Feb 17 23:01:59 2018
