
  ___ ___ ___ _ _ _  
 |   |   |_  | | | | 
 | | | | | . | | | | 
 |__ |  _|___|_____|  1.3.0
 |___|_|             

User:   analbin@hebbe05-10
Date:   Tue Feb 20 12:23:09 2018
Arch:   x86_64
Pid:    8544
Python: 2.7.14
gpaw:   /apps/Hebbe/software/MPI/intel/2017.4.196-GCC-6.4.0-2.28/impi/2017.3.196/GPAW/1.3.0-Python-2.7.14/lib/python2.7/site-packages/gpaw
_gpaw:  /apps/Hebbe/software/MPI/intel/2017.4.196-GCC-6.4.0-2.28/impi/2017.3.196/GPAW/1.3.0-Python-2.7.14/bin/
       gpaw-python
ase:    /apps/Hebbe/software/MPI/intel/2017.4.196-GCC-6.4.0-2.28/impi/2017.3.196/ASE/3.15.0-Python-2.7.14/lib/python2.7/site-packages/ase-3.15.0-py2.7.egg/ase (version 3.15.0)
numpy:  /apps/Hebbe/software/MPI/intel/2017.4.196-GCC-6.4.0-2.28/impi/2017.3.196/Python/2.7.14/lib/python2.7/site-packages/numpy-1.13.1-py2.7-linux-x86_64.egg/numpy (version 1.13.1)
scipy:  /apps/Hebbe/software/MPI/intel/2017.4.196-GCC-6.4.0-2.28/impi/2017.3.196/Python/2.7.14/lib/python2.7/site-packages/scipy-0.19.1-py2.7-linux-x86_64.egg/scipy (version 0.19.1)
units:  Angstrom and eV
cores:  20

Input parameters:
  h: 0.18
  kpts: [16 16  1]
  mixer: {backend: pulay,
          beta: 0.1,
          method: separate,
          nmaxold: 5,
          weight: 50.0}
  mode: {ecut: 350.0,
         name: pw}
  xc: PBE

System changes: positions, numbers, cell, pbc, initial_charges, initial_magmoms 

Initialize ...

Al-setup:
  name: Aluminium
  id: 0292cae29f5d6237e50f6abdd43a7bdd
  Z: 13
  valence: 3
  core: 10
  charge: 0.0
  file: /c3se/apps/Glenn/gpaw/gpaw-setups-0.9.11271/Al.PBE.gz
  cutoffs: 1.08(comp), 1.91(filt), 2.36(core), lmax=2
  valence states:
                energy  radius
    3s(2.00)    -7.753   1.085
    3p(1.00)    -2.712   1.085
    *s          19.459   1.085
    *p          24.499   1.085
    *d           0.000   1.085

  Using partial waves for Al as LCAO basis

C-setup:
  name: Carbon
  id: 4aa54d4b901d75f77cc0ea3eec22967b
  Z: 6
  valence: 4
  core: 2
  charge: 0.0
  file: /c3se/apps/Glenn/gpaw/gpaw-setups-0.9.11271/C.PBE.gz
  cutoffs: 0.64(comp), 1.14(filt), 1.14(core), lmax=2
  valence states:
                energy  radius
    2s(2.00)   -13.751   0.635
    2p(2.00)    -5.284   0.635
    *s          13.461   0.635
    *p          21.927   0.635
    *d           0.000   0.635

  Using partial waves for C as LCAO basis

O-setup:
  name: Oxygen
  id: 32ecd46bf208036f09c70b0ec9a88b78
  Z: 8
  valence: 6
  core: 2
  charge: 0.0
  file: /c3se/apps/Glenn/gpaw/gpaw-setups-0.9.11271/O.PBE.gz
  cutoffs: 0.67(comp), 1.17(filt), 0.83(core), lmax=2
  valence states:
                energy  radius
    2s(2.00)   -23.961   0.688
    2p(4.00)    -9.029   0.598
    *s           3.251   0.688
    *p          18.182   0.598
    *d           0.000   0.619

  Using partial waves for O as LCAO basis

Reference energy: -95516.406125

Spin-paired calculation

Occupation numbers:
  Fermi-Dirac: width=0.1000 eV

Convergence criteria:
  Maximum total energy change: 0.0005 eV / electron
  Maximum integral of absolute density change: 0.0001 electrons
  Maximum integral of absolute eigenstate change: 4e-08 eV^2
  Maximum number of iterations: 333

Symmetries present (total): 8

  ( 1  0  0)  ( 1  0  0)  ( 0  1  0)  ( 0  1  0)  ( 0 -1  0)  ( 0 -1  0)
  ( 0  1  0)  ( 0 -1  0)  ( 1  0  0)  (-1  0  0)  ( 1  0  0)  (-1  0  0)
  ( 0  0  1)  ( 0  0  1)  ( 0  0  1)  ( 0  0  1)  ( 0  0  1)  ( 0  0  1)

  (-1  0  0)  (-1  0  0)
  ( 0  1  0)  ( 0 -1  0)
  ( 0  0  1)  ( 0  0  1)

256 k-points: 16 x 16 x 1 Monkhorst-Pack grid
36 k-points in the irreducible part of the Brillouin zone
       k-points in crystal coordinates                weights
   0:     0.03125000    0.03125000    0.00000000          4/256
   1:     0.09375000    0.03125000    0.00000000          8/256
   2:     0.09375000    0.09375000    0.00000000          4/256
   3:     0.15625000    0.03125000    0.00000000          8/256
   4:     0.15625000    0.09375000    0.00000000          8/256
   5:     0.15625000    0.15625000    0.00000000          4/256
   6:     0.21875000    0.03125000    0.00000000          8/256
   7:     0.21875000    0.09375000    0.00000000          8/256
   8:     0.21875000    0.15625000    0.00000000          8/256
   9:     0.21875000    0.21875000    0.00000000          4/256
          ...
  35:     0.46875000    0.46875000    0.00000000          4/256

Wave functions: Plane wave expansion
  Cutoff energy: 350.000 eV
  Number of coefficients (min, max): 6738, 6902
  Using FFTW library
  Eigensolver: None  MatrixOperator buffer_size: default value or 
                              see value of nblock in input file
Diagonalizer layout: Serial LAPACKOrthonormalizer layout: Serial LAPACK 

Davidson(niter=1, smin=None, normalize=True) 

Densities:
  Coarse grid: 16*16*315 grid
  Fine grid: 32*32*630 grid
  Total Charge: 0.000000 

Density mixing:
  Method: separate
  Backend: pulay
  Linear mixing parameter: 0.1
  Mixing with 5 old densities
  Damping of long wave oscillations: 50 

Hamiltonian:
  XC and Coulomb potentials evaluated on a 32*32*630 grid
  Using the PBE Exchange-Correlation functional
 

Memory estimate:
  Process memory now: 280.40 MiB
  Calculator: 83.10 MiB
    Density: 45.94 MiB
      Arrays: 16.00 MiB
      Localized functions: 23.79 MiB
      Mixer: 6.15 MiB
    Hamiltonian: 11.10 MiB
      Arrays: 10.46 MiB
      XC: 0.00 MiB
      Poisson: 0.00 MiB
      vbar: 0.64 MiB
    Wavefunctions: 26.06 MiB
      Arrays psit_nG: 6.74 MiB
      Eigensolver: 7.89 MiB
      Projections: 0.20 MiB
      Projectors: 1.26 MiB
      Overlap op: 6.80 MiB
      PW-descriptor: 3.16 MiB

Total number of cores used: 20
Parallelization over k-points: 20

Number of atoms: 16
Number of atomic orbitals: 64
Number of bands in calculation: 64
Bands to converge: occupied states only
Number of valence electrons: 52

... initialized

Initializing position-dependent things.

Density initialized from atomic densities
Creating initial wave functions:
  64 bands from LCAO basis set

   .------.  
  /|      |  
 * |      |  
 | |      |  
 | |      |  
 | |      |  
 | |      |  
 | |      |  
 | |      |  
 | |      |  
 | |      |  
 | |      |  
 | |      |  
 | |      |  
 | |      |  
 | |      |  
 | |      |  
 O |      |  
 C |      |  
 | |      |  
 Al|      |  
 | |      |  
 | | Al   |  
 | |      |  
 | |      |  
 Al|      |  
 | |      |  
 | | Al   |  
 | |      |  
 | |      |  
 Al|      |  
 | |      |  
 | | Al   |  
 | |      |  
 | |      |  
 Al|      |  
 | |      |  
 | | Al   |  
 | |      |  
 | |      |  
 Al|      |  
 | |      |  
 | | Al   |  
 | |      |  
 | |      |  
 Al|      |  
 | |      |  
 | | Al   |  
 | |      |  
 | |      |  
 Al|      |  
 | |      |  
 | | Al   |  
 | |      |  
 | |      |  
 | |      |  
 | |      |  
 | |      |  
 | |      |  
 | |      |  
 | |      |  
 | |      |  
 | |      |  
 | |      |  
 | |      |  
 | |      |  
 | |      |  
 | |      |  
 | |      |  
 | .------.  
 |/      /   
 *------*    

Positions:
   0 Al     1.429625    1.429625   15.000000
   1 Al     0.000000    0.000000   17.021795
   2 Al     1.429625    1.429625   19.043589
   3 Al     0.000000    0.000000   21.065384
   4 Al     1.429625    1.429625   23.087179
   5 Al     0.000000    0.000000   25.108973
   6 Al     1.429625    1.429625   27.130768
   7 Al     0.000000    0.000000   29.152563
   8 Al     1.429625    1.429625   31.174357
   9 Al     0.000000    0.000000   33.196152
  10 Al     1.429625    1.429625   35.217946
  11 Al     0.000000    0.000000   37.239741
  12 Al     1.429625    1.429625   39.261536
  13 Al     0.000000    0.000000   41.283330
  14 C      0.000000    0.000000   43.283330
  15 O      0.000000    0.000000   44.411330

Unit cell:
           periodic     x           y           z      points  spacing
  1. axis:    yes    2.859249    0.000000    0.000000    16     0.1787
  2. axis:    yes    0.000000    2.859249    0.000000    16     0.1787
  3. axis:    no     0.000000    0.000000   56.283330   315     0.1787

  Lengths:   2.859249   2.859249  56.283330
  Angles:   90.000000  90.000000  90.000000

Effective grid spacing dv^(1/3) = 0.1787

                     log10-error:    total        iterations:
           time      wfs    density  energy       fermi  poisson
iter:   1  12:23:16  +1.66   +inf  -255.193479    2             
iter:   2  12:23:18  +0.30   +inf  -257.661062    3             
iter:   3  12:23:19  -0.76   +inf  -257.881467    3             
iter:   4  12:23:22  +2.97  -0.16  -6882.180175    36            
iter:   5  12:23:25  +2.57  +0.06  -2310.925538    38            
iter:   6  12:23:29  +1.15  +0.09  -712.857425    37            
iter:   7  12:23:32  +1.53  -0.04   247.554101    39            
iter:   8  12:23:35  +1.84  -0.07    -1.127029    35            
iter:   9  12:23:38  +1.57  -0.44  -181.461263    35            
iter:  10  12:23:41  +1.68  -0.43  -206.177217    35            
iter:  11  12:23:44  +0.30  -0.16  -198.172482    4             
iter:  12  12:23:48  -0.15  -0.18  -105.721710    3             
iter:  13  12:23:51  -0.58  -0.41  -102.829868    35            
iter:  14  12:23:54  +1.03  -0.54  -345.066688    34            
iter:  15  12:23:57  +0.00  -0.10   -84.086816    32            
iter:  16  12:24:00  -0.73  -0.54   -83.846110    3             
iter:  17  12:24:03  -0.60  -0.55  -284.939676    37            
iter:  18  12:24:07  +0.49  -0.12  -147.582903    35            
iter:  19  12:24:10  -0.40  -0.29  -115.171574    36            
iter:  20  12:24:13  +0.53  -0.36  -116.106529    37            
iter:  21  12:24:16  -0.62  -0.42   -81.641040    30            
iter:  22  12:24:19  -1.19  -0.61   -85.565393    28            
iter:  23  12:24:22  -0.45  -0.61  -231.206921    4             
iter:  24  12:24:26  +0.21  -0.12  -182.487410    31            
iter:  25  12:24:29  +1.73  -0.19  -979.491776    33            
iter:  26  12:24:32  -0.14  +0.06  -125.307736    38            
iter:  27  12:24:35  -0.47  -0.35   -68.229748    34            
iter:  28  12:24:38  -0.65  -0.82   -65.591228    31            
iter:  29  12:24:41  +0.55  -0.92  -254.544025    34            
iter:  30  12:24:45  +0.95  -0.11  -112.969847    32            
iter:  31  12:24:48  -0.93  -0.43   -68.534914    31            
iter:  32  12:24:51  -1.05  -0.81   -65.047463    3             
iter:  33  12:24:54  -2.16  -0.98   -72.612093    32            
iter:  34  12:24:57  -2.19  -0.70   -67.739964    34            
iter:  35  12:25:00  -2.03  -0.86   -71.705660    33            
iter:  36  12:25:04  -2.55  -0.71   -70.319549    3             
iter:  37  12:25:07  -2.35  -0.76   -69.092533    34            
iter:  38  12:25:10  -2.63  -0.84   -63.615416    3             
iter:  39  12:25:13  -2.96  -1.18   -63.707834    33            
iter:  40  12:25:16  -2.72  -1.18   -66.503818    35            
iter:  41  12:25:19  -2.62  -0.93   -63.951943    34            
iter:  42  12:25:23  -3.04  -1.10   -68.063898    3             
iter:  43  12:25:26  -2.67  -0.82   -63.158465    34            
iter:  44  12:25:29  -3.22  -1.32   -63.105604    34            
iter:  45  12:25:32  -3.62  -1.37   -63.251427    34            
iter:  46  12:25:35  -3.10  -1.26   -63.533753    31            
iter:  47  12:25:38  -3.21  -1.23   -62.706375    34            
iter:  48  12:25:41  -3.24  -1.54   -62.932820    34            
iter:  49  12:25:45  -3.99  -1.40   -62.805563    3             
iter:  50  12:25:48  -3.31  -1.47   -63.243737    33            
iter:  51  12:25:51  -3.43  -1.35   -62.841276    32            
iter:  52  12:25:54  -3.88  -1.43   -62.537678    3             
iter:  53  12:25:57  -4.04  -2.03   -63.067294    3             
iter:  54  12:26:00  -4.26  -1.36   -62.532190    3             
iter:  55  12:26:04  -4.88  -2.11   -62.522328    3             
iter:  56  12:26:07  -3.76  -2.29   -62.551694    3             
iter:  57  12:26:10  -4.72  -1.92   -62.527132    3             
iter:  58  12:26:13  -4.89  -2.19   -62.645990    3             
iter:  59  12:26:16  -5.00  -1.63   -62.532645    3             
iter:  60  12:26:19  -5.51  -2.13   -62.519937    3             
iter:  61  12:26:23  -6.04  -2.43   -62.517490    2             
iter:  62  12:26:26  -6.29  -2.60   -62.517714    2             
iter:  63  12:26:29  -6.26  -2.65   -62.518164    3             
iter:  64  12:26:32  -5.22  -2.53   -62.535721    3             
iter:  65  12:26:35  -5.34  -2.06   -62.525049    3             
iter:  66  12:26:38  -5.83  -2.22   -62.522374    3             
iter:  67  12:26:41  -6.07  -2.33   -62.517042    3             
iter:  68  12:26:45  -6.39  -2.87   -62.517771    3             
iter:  69  12:26:48  -6.72  -2.62   -62.517092    2             
iter:  70  12:26:51  -6.42  -2.86   -62.517269    2             
iter:  71  12:26:54  -5.58  -2.82   -62.553496    2             
iter:  72  12:26:57  -5.51  -1.92   -62.518934    3             
iter:  73  12:27:00  -6.23  -2.54   -62.517212    3             
iter:  74  12:27:04  -6.55  -2.83   -62.517587    2             
iter:  75  12:27:07  -6.95  -2.74   -62.516794    2             
iter:  76  12:27:10  -7.38  -3.15   -62.516729    2             
iter:  77  12:27:13  -7.26  -3.40   -62.516956    2             
iter:  78  12:27:16  -7.41  -3.06   -62.516904    2             
iter:  79  12:27:19  -7.57  -3.13   -62.516866    2             
iter:  80  12:27:23  -7.02  -3.10   -62.517226    2             
iter:  81  12:27:26  -7.03  -2.80   -62.516836    2             
iter:  82  12:27:29  -7.41  -3.21   -62.516746    2             
iter:  83  12:27:32  -7.61  -3.60   -62.516766    2             
iter:  84  12:27:35  -7.87  -3.46   -62.516762    2             
iter:  85  12:27:38  -7.98  -3.38   -62.516795    2             
iter:  86  12:27:42  -7.62  -3.38   -62.516930    2             
iter:  87  12:27:45  -7.56  -3.08   -62.516758    2             
iter:  88  12:27:48  -7.67  -3.54   -62.516756    2             
iter:  89  12:27:51  -7.54  -3.52   -62.516756    2             
iter:  90  12:27:54  -8.07  -3.89   -62.516803    2             
iter:  91  12:27:57  -8.06  -3.42   -62.516746    2             
iter:  92  12:28:01  -8.32  -3.57   -62.516768    2             
iter:  93  12:28:04  -8.51  -3.43   -62.516748    2             
iter:  94  12:28:07  -8.71  -4.08   -62.516749    2             

Converged after 94 iterations.

Dipole moment: (-0.000000, -0.000000, -0.083060) |e|*Ang

Energy contributions relative to reference atoms: (reference = -95516.406125)

Kinetic:        +51.373983
Potential:      -24.269591
External:        +0.000000
XC:             -89.133387
Entropy (-ST):   -0.212784
Local:           -0.381362
--------------------------
Free energy:    -62.623141
Extrapolated:   -62.516749

Fermi level: 1.70725

Warning: Showing only first 2 kpts
 Kpt  Band  Eigenvalues  Occupancy
  0    24      4.96231    0.00000
  0    25      5.01498    0.00000
  0    26      5.85357    0.00000
  0    27      6.14278    0.00000

  1    24      4.67315    0.00000
  1    25      4.81010    0.00000
  1    26      4.96419    0.00000
  1    27      5.01954    0.00000



Forces in eV/Ang:
  0 Al    0.00000    0.00000   -0.08380
  1 Al    0.00000    0.00000    0.04521
  2 Al    0.00000    0.00000    0.03866
  3 Al    0.00000    0.00000    0.02556
  4 Al    0.00000    0.00000   -0.02825
  5 Al    0.00000    0.00000    0.01724
  6 Al    0.00000    0.00000   -0.01240
  7 Al    0.00000    0.00000   -0.00086
  8 Al    0.00000    0.00000   -0.00775
  9 Al    0.00000    0.00000   -0.02283
 10 Al    0.00000    0.00000   -0.00337
 11 Al    0.00000    0.00000   -0.05268
 12 Al    0.00000    0.00000    0.05131
 13 Al    0.00000    0.00000    0.05209
 14 C     0.00000    0.00000   -5.13702
 15 O     0.00000    0.00000    5.12019

System changes: positions 

Initializing position-dependent things.

Density initialized from wave functions
   .------.  
  /|      |  
 * |      |  
 | |      |  
 | |      |  
 | |      |  
 | |      |  
 | |      |  
 | |      |  
 | |      |  
 | |      |  
 | |      |  
 | |      |  
 | |      |  
 | |      |  
 | |      |  
 | |      |  
 O |      |  
 C |      |  
 | |      |  
 Al|      |  
 | |      |  
 | | Al   |  
 | |      |  
 | |      |  
 Al|      |  
 | |      |  
 | | Al   |  
 | |      |  
 | |      |  
 Al|      |  
 | |      |  
 | | Al   |  
 | |      |  
 | |      |  
 Al|      |  
 | |      |  
 | | Al   |  
 | |      |  
 | |      |  
 Al|      |  
 | |      |  
 | | Al   |  
 | |      |  
 | |      |  
 Al|      |  
 | |      |  
 | | Al   |  
 | |      |  
 | |      |  
 Al|      |  
 | |      |  
 | | Al   |  
 | |      |  
 | |      |  
 | |      |  
 | |      |  
 | |      |  
 | |      |  
 | |      |  
 | |      |  
 | |      |  
 | |      |  
 | |      |  
 | |      |  
 | |      |  
 | |      |  
 | |      |  
 | |      |  
 | .------.  
 |/      /   
 *------*    

Positions:
   0 Al     1.429625    1.429625   15.000000
   1 Al     0.000000    0.000000   17.021795
   2 Al     1.429625    1.429625   19.043589
   3 Al     0.000000    0.000000   21.065384
   4 Al     1.429625    1.429625   23.087179
   5 Al     0.000000    0.000000   25.108973
   6 Al     1.429625    1.429625   27.130768
   7 Al     0.000000    0.000000   29.152563
   8 Al     1.429625    1.429625   31.174357
   9 Al     0.000000    0.000000   33.196152
  10 Al     1.429625    1.429625   35.217946
  11 Al     0.000000    0.000000   37.239741
  12 Al     1.429625    1.429625   39.261536
  13 Al     0.000000    0.000000   41.283330
  14 C      0.000000    0.000000   43.243330
  15 O      0.000000    0.000000   44.451199

Unit cell:
           periodic     x           y           z      points  spacing
  1. axis:    yes    2.859249    0.000000    0.000000    16     0.1787
  2. axis:    yes    0.000000    2.859249    0.000000    16     0.1787
  3. axis:    no     0.000000    0.000000   56.283330   315     0.1787

  Lengths:   2.859249   2.859249  56.283330
  Angles:   90.000000  90.000000  90.000000

Effective grid spacing dv^(1/3) = 0.1787

                     log10-error:    total        iterations:
           time      wfs    density  energy       fermi  poisson
iter:   1  12:28:12  +0.84   +inf   -64.524553    34            
iter:   2  12:28:15  -0.28  -1.30  -220.439314    35            
iter:   3  12:28:18  -0.54  -0.13   -89.776704    34            
iter:   4  12:28:22  -1.84  -0.51   -75.401812    33            
iter:   5  12:28:25  -1.59  -0.68   -68.527937    35            
iter:   6  12:28:28  -1.68  -0.93   -89.142253    36            
iter:   7  12:28:31  -1.85  -0.54   -65.983716    34            
iter:   8  12:28:34  -2.44  -0.97   -69.569213    31            
iter:   9  12:28:38  -2.42  -0.86   -77.506419    34            
iter:  10  12:28:41  -1.44  -0.60   -62.925023    3             
iter:  11  12:28:44  -1.79  -1.53   -65.172313    3             
iter:  12  12:28:47  -2.79  -1.01   -63.639932    3             
iter:  13  12:28:50  -2.77  -1.20   -67.141573    34            
iter:  14  12:28:53  -2.52  -0.89   -64.091458    35            
iter:  15  12:28:57  -2.66  -1.12   -74.745012    31            
iter:  16  12:29:00  -2.64  -0.67   -63.427013    3             
iter:  17  12:29:03  -3.03  -1.23   -63.069607    33            
iter:  18  12:29:06  -2.94  -1.34   -62.767378    4             
iter:  19  12:29:09  -3.41  -1.60   -62.657839    3             
iter:  20  12:29:13  -2.95  -1.78   -62.667684    3             
iter:  21  12:29:16  -3.59  -1.78   -62.606828    3             
iter:  22  12:29:19  -4.08  -2.09   -62.598023    3             
iter:  23  12:29:22  -3.81  -2.25   -62.804652    3             
iter:  24  12:29:25  -4.07  -1.54   -62.683659    3             
iter:  25  12:29:28  -3.98  -1.70   -62.603899    3             
iter:  26  12:29:32  -4.29  -2.13   -62.680561    3             
iter:  27  12:29:35  -4.26  -1.72   -62.593204    3             
iter:  28  12:29:38  -4.85  -2.42   -62.591548    2             
iter:  29  12:29:41  -5.53  -2.54   -62.591730    3             
iter:  30  12:29:44  -5.33  -2.57   -62.590125    3             
iter:  31  12:29:47  -6.22  -2.88   -62.589865    2             
iter:  32  12:29:51  -5.68  -3.16   -62.590107    2             
iter:  33  12:29:54  -6.20  -2.97   -62.590347    3             
iter:  34  12:29:57  -6.63  -2.82   -62.590118    3             
iter:  35  12:30:00  -5.92  -2.94   -62.589816    2             
iter:  36  12:30:03  -6.67  -3.41   -62.590266    2             
iter:  37  12:30:07  -7.13  -2.85   -62.589792    2             
iter:  38  12:30:10  -7.17  -3.58   -62.589794    2             
iter:  39  12:30:13  -7.01  -3.57   -62.589803    2             
iter:  40  12:30:16  -7.88  -3.63   -62.589777    2             
iter:  41  12:30:19  -8.66  -4.14   -62.589776    2             

Converged after 41 iterations.

Dipole moment: (-0.000000, -0.000000, -0.166851) |e|*Ang

Energy contributions relative to reference atoms: (reference = -95516.406125)

Kinetic:        +42.915197
Potential:      -17.736827
External:        +0.000000
XC:             -87.307643
Entropy (-ST):   -0.214696
Local:           -0.353156
--------------------------
Free energy:    -62.697124
Extrapolated:   -62.589776

Fermi level: 1.50695

Warning: Showing only first 2 kpts
 Kpt  Band  Eigenvalues  Occupancy
  0    24      4.54765    0.00000
  0    25      4.83832    0.00000
  0    26      5.74959    0.00000
  0    27      5.94093    0.00000

  1    24      4.46962    0.00000
  1    25      4.57687    0.00000
  1    26      4.60783    0.00000
  1    27      4.79339    0.00000



Forces in eV/Ang:
  0 Al   -0.00000    0.00000   -0.07980
  1 Al    0.00000    0.00000    0.04778
  2 Al   -0.00000    0.00000    0.04173
  3 Al   -0.00000    0.00000    0.02721
  4 Al    0.00000    0.00000   -0.02876
  5 Al    0.00000    0.00000    0.01611
  6 Al    0.00000    0.00000   -0.01536
  7 Al   -0.00000    0.00000   -0.00352
  8 Al    0.00000    0.00000   -0.00799
  9 Al    0.00000    0.00000   -0.02252
 10 Al    0.00000    0.00000   -0.00048
 11 Al    0.00000    0.00000   -0.04102
 12 Al    0.00000    0.00000    0.08009
 13 Al   -0.00000    0.00000   -0.17804
 14 C     0.00000    0.00000    2.76531
 15 O     0.00000    0.00000   -2.60897

System changes: positions 

Initializing position-dependent things.

Density initialized from wave functions
   .------.  
  /|      |  
 * |      |  
 | |      |  
 | |      |  
 | |      |  
 | |      |  
 | |      |  
 | |      |  
 | |      |  
 | |      |  
 | |      |  
 | |      |  
 | |      |  
 | |      |  
 | |      |  
 | |      |  
 O |      |  
 C |      |  
 | |      |  
 Al|      |  
 | |      |  
 | | Al   |  
 | |      |  
 | |      |  
 Al|      |  
 | |      |  
 | | Al   |  
 | |      |  
 | |      |  
 Al|      |  
 | |      |  
 | | Al   |  
 | |      |  
 | |      |  
 Al|      |  
 | |      |  
 | | Al   |  
 | |      |  
 | |      |  
 Al|      |  
 | |      |  
 | | Al   |  
 | |      |  
 | |      |  
 Al|      |  
 | |      |  
 | | Al   |  
 | |      |  
 | |      |  
 Al|      |  
 | |      |  
 | | Al   |  
 | |      |  
 | |      |  
 | |      |  
 | |      |  
 | |      |  
 | |      |  
 | |      |  
 | |      |  
 | |      |  
 | |      |  
 | |      |  
 | |      |  
 | |      |  
 | |      |  
 | |      |  
 | |      |  
 | .------.  
 |/      /   
 *------*    

Positions:
   0 Al     1.429625    1.429625   15.000000
   1 Al     0.000000    0.000000   17.021795
   2 Al     1.429625    1.429625   19.043589
   3 Al     0.000000    0.000000   21.065384
   4 Al     1.429625    1.429625   23.087179
   5 Al     0.000000    0.000000   25.108973
   6 Al     1.429625    1.429625   27.130768
   7 Al     0.000000    0.000000   29.152563
   8 Al     1.429625    1.429625   31.174357
   9 Al     0.000000    0.000000   33.196152
  10 Al     1.429625    1.429625   35.217946
  11 Al     0.000000    0.000000   37.239741
  12 Al     1.429625    1.429625   39.261536
  13 Al     0.000000    0.000000   41.283330
  14 C      0.000000    0.000000   43.257767
  15 O      0.000000    0.000000   44.438191

Unit cell:
           periodic     x           y           z      points  spacing
  1. axis:    yes    2.859249    0.000000    0.000000    16     0.1787
  2. axis:    yes    0.000000    2.859249    0.000000    16     0.1787
  3. axis:    no     0.000000    0.000000   56.283330   315     0.1787

  Lengths:   2.859249   2.859249  56.283330
  Angles:   90.000000  90.000000  90.000000

Effective grid spacing dv^(1/3) = 0.1787

                     log10-error:    total        iterations:
           time      wfs    density  energy       fermi  poisson
iter:   1  12:30:24  -0.11   +inf   -62.811312    3             
iter:   2  12:30:28  -1.66  -1.93   -64.414978    3             
iter:   3  12:30:31  -2.60  -1.11   -71.846794    3             
iter:   4  12:30:34  -2.76  -0.71   -62.990682    3             
iter:   5  12:30:37  -2.04  -1.46   -63.879347    31            
iter:   6  12:30:40  -2.58  -1.19   -64.943550    33            
iter:   7  12:30:43  -3.15  -1.06   -62.909974    34            
iter:   8  12:30:47  -3.41  -1.53   -62.710338    3             
iter:   9  12:30:50  -2.67  -1.77   -79.194727    3             
iter:  10  12:30:53  -3.08  -0.58   -62.947861    2             
iter:  11  12:30:56  -3.75  -1.45   -62.945729    3             
iter:  12  12:30:59  -3.81  -1.43   -62.882671    3             
iter:  13  12:31:03  -3.58  -1.51   -62.830462    3             
iter:  14  12:31:06  -4.02  -1.60   -62.784110    3             
iter:  15  12:31:09  -3.19  -1.68   -62.833569    3             
iter:  16  12:31:12  -2.44  -1.55   -70.380421    4             
iter:  17  12:31:15  -2.65  -0.75   -62.709384    3             
iter:  18  12:31:19  -3.54  -1.75   -62.763880    3             
iter:  19  12:31:22  -4.16  -1.65   -62.642829    3             
iter:  20  12:31:25  -4.84  -2.31   -62.646087    3             
iter:  21  12:31:28  -5.38  -2.18   -62.658141    3             
iter:  22  12:31:31  -4.85  -2.05   -62.680974    2             
iter:  23  12:31:34  -5.41  -1.87   -62.641426    3             
iter:  24  12:31:38  -4.77  -2.23   -62.768306    3             
iter:  25  12:31:41  -4.78  -1.63   -62.658666    3             
iter:  26  12:31:44  -4.73  -2.03   -62.655779    3             
iter:  27  12:31:47  -5.15  -2.03   -62.672950    3             
iter:  28  12:31:50  -4.50  -1.91   -62.654796    3             
iter:  29  12:31:54  -4.45  -2.08   -62.712380    2             
iter:  30  12:31:57  -4.87  -1.76   -62.654888    3             
iter:  31  12:32:00  -5.55  -2.05   -62.663580    3             
iter:  32  12:32:03  -5.57  -1.96   -62.655300    2             
iter:  33  12:32:06  -5.89  -2.04   -62.652255    3             
iter:  34  12:32:09  -4.10  -2.06   -62.641022    3             
iter:  35  12:32:13  -4.79  -2.24   -62.656479    3             
iter:  36  12:32:16  -4.90  -2.02   -62.637001    3             
iter:  37  12:32:19  -5.64  -2.42   -62.637969    3             
iter:  38  12:32:22  -5.80  -2.36   -62.635600    3             
iter:  39  12:32:25  -5.69  -2.50   -62.634177    2             
iter:  40  12:32:29  -5.60  -2.71   -62.635382    2             
iter:  41  12:32:32  -5.86  -2.56   -62.642620    3             
iter:  42  12:32:35  -5.65  -2.21   -62.644529    3             
iter:  43  12:32:38  -5.73  -2.18   -62.633985    3             
iter:  44  12:32:41  -5.79  -2.74   -62.633584    2             
iter:  45  12:32:45  -6.17  -2.86   -62.634471    2             
iter:  46  12:32:48  -6.50  -2.62   -62.633810    2             
iter:  47  12:32:51  -6.38  -2.75   -62.635505    3             
iter:  48  12:32:54  -5.51  -2.50   -62.638084    3             
iter:  49  12:32:57  -5.87  -2.38   -62.635618    3             
iter:  50  12:33:00  -6.39  -2.50   -62.634338    2             
iter:  51  12:33:04  -6.71  -2.63   -62.633375    2             
iter:  52  12:33:07  -6.32  -2.93   -62.633427    2             
iter:  53  12:33:10  -6.22  -2.98   -62.634743    3             
iter:  54  12:33:13  -6.30  -2.59   -62.636099    3             
iter:  55  12:33:16  -5.64  -2.47   -62.636156    3             
iter:  56  12:33:20  -6.10  -2.48   -62.633648    3             
iter:  57  12:33:23  -6.41  -2.83   -62.633589    2             
iter:  58  12:33:26  -7.05  -2.94   -62.633354    2             
iter:  59  12:33:29  -7.33  -3.03   -62.633184    2             
iter:  60  12:33:32  -6.66  -3.26   -62.633541    3             
iter:  61  12:33:36  -6.55  -2.93   -62.635232    3             
iter:  62  12:33:39  -6.73  -2.54   -62.634095    3             
iter:  63  12:33:42  -6.66  -2.70   -62.633460    3             
iter:  64  12:33:45  -6.90  -2.88   -62.633165    2             
iter:  65  12:33:48  -7.16  -3.29   -62.633204    2             
iter:  66  12:33:51  -7.38  -3.28   -62.633308    2             
iter:  67  12:33:55  -7.07  -3.03   -62.633818    3             
iter:  68  12:33:58  -7.11  -2.82   -62.633262    3             
iter:  69  12:34:01  -6.70  -3.13   -62.633287    2             
iter:  70  12:34:04  -7.16  -3.16   -62.633342    2             
iter:  71  12:34:07  -7.39  -3.02   -62.633202    2             
iter:  72  12:34:11  -7.68  -3.17   -62.633133    2             
iter:  73  12:34:14  -7.34  -3.67   -62.633233    2             
iter:  74  12:34:17  -7.67  -3.13   -62.633247    2             
iter:  75  12:34:20  -7.81  -3.19   -62.633196    2             
iter:  76  12:34:23  -7.58  -3.18   -62.633217    2             
iter:  77  12:34:27  -7.39  -3.21   -62.633219    2             
iter:  78  12:34:30  -7.54  -3.32   -62.633213    2             
iter:  79  12:34:33  -7.70  -3.22   -62.633224    2             
iter:  80  12:34:36  -7.45  -3.23   -62.633147    2             
iter:  81  12:34:39  -7.65  -3.32   -62.633134    2             
iter:  82  12:34:42  -7.69  -3.64   -62.633227    2             
iter:  83  12:34:46  -7.62  -3.15   -62.633195    2             
iter:  84  12:34:49  -7.21  -3.23   -62.633176    2             
iter:  85  12:34:52  -7.49  -3.41   -62.633140    2             
iter:  86  12:34:55  -7.76  -3.42   -62.633208    2             
iter:  87  12:34:58  -7.91  -3.31   -62.633150    2             
iter:  88  12:35:01  -8.42  -3.47   -62.633133    2             
iter:  89  12:35:05  -8.34  -3.67   -62.633136    2             
iter:  90  12:35:08  -7.98  -3.74   -62.633152    2             
iter:  91  12:35:11  -8.20  -3.52   -62.633159    2             
iter:  92  12:35:14  -7.60  -3.47   -62.633238    2             
iter:  93  12:35:17  -7.65  -3.11   -62.633135    2             
iter:  94  12:35:21  -8.14  -3.61   -62.633125    2             
iter:  95  12:35:24  -8.64  -3.91   -62.633122    2             
iter:  96  12:35:27  -8.68  -3.93   -62.633125    2             
iter:  97  12:35:30  -8.69  -3.82   -62.633119    2             
iter:  98  12:35:33  -8.05  -3.88   -62.633194    2             
iter:  99  12:35:36  -8.09  -3.36   -62.633146    2             
iter: 100  12:35:40  -8.55  -3.47   -62.633121    2             
iter: 101  12:35:43  -8.99  -3.78   -62.633122    2             
iter: 102  12:35:46  -8.63  -3.84   -62.633122    2             
iter: 103  12:35:49  -8.91  -3.88   -62.633131    2             
iter: 104  12:35:52  -8.45  -3.74   -62.633141    2             
iter: 105  12:35:56  -8.07  -3.42   -62.633135    2             
iter: 106  12:35:59  -8.38  -3.61   -62.633126    2             
iter: 107  12:36:02  -8.86  -4.03   -62.633124    2             

Converged after 107 iterations.

Dipole moment: (-0.000000, -0.000000, -0.140057) |e|*Ang

Energy contributions relative to reference atoms: (reference = -95516.406125)

Kinetic:        +45.406857
Potential:      -19.685480
External:        +0.000000
XC:             -87.884343
Entropy (-ST):   -0.214057
Local:           -0.363129
--------------------------
Free energy:    -62.740152
Extrapolated:   -62.633124

Fermi level: 1.57237

Warning: Showing only first 2 kpts
 Kpt  Band  Eigenvalues  Occupancy
  0    24      4.68384    0.00000
  0    25      4.89170    0.00000
  0    26      5.79009    0.00000
  0    27      6.00636    0.00000

  1    24      4.53554    0.00000
  1    25      4.66898    0.00000
  1    26      4.71650    0.00000
  1    27      4.85955    0.00000



Forces in eV/Ang:
  0 Al    0.00000    0.00000   -0.07993
  1 Al   -0.00000    0.00000    0.04813
  2 Al   -0.00000    0.00000    0.04185
  3 Al    0.00000    0.00000    0.02742
  4 Al    0.00000    0.00000   -0.02893
  5 Al    0.00000    0.00000    0.01515
  6 Al    0.00000    0.00000   -0.01641
  7 Al   -0.00000    0.00000   -0.00420
  8 Al    0.00000    0.00000   -0.00868
  9 Al   -0.00000    0.00000   -0.02222
 10 Al    0.00000    0.00000    0.00123
 11 Al    0.00000    0.00000   -0.04281
 12 Al    0.00000    0.00000    0.07286
 13 Al    0.00000    0.00000   -0.07685
 14 C     0.00000    0.00000    0.42415
 15 O     0.00000    0.00000   -0.33442

System changes: positions 

Initializing position-dependent things.

Density initialized from wave functions
   .------.  
  /|      |  
 * |      |  
 | |      |  
 | |      |  
 | |      |  
 | |      |  
 | |      |  
 | |      |  
 | |      |  
 | |      |  
 | |      |  
 | |      |  
 | |      |  
 | |      |  
 | |      |  
 | |      |  
 O |      |  
 C |      |  
 | |      |  
 Al|      |  
 | |      |  
 | | Al   |  
 | |      |  
 | |      |  
 Al|      |  
 | |      |  
 | | Al   |  
 | |      |  
 | |      |  
 Al|      |  
 | |      |  
 | | Al   |  
 | |      |  
 | |      |  
 Al|      |  
 | |      |  
 | | Al   |  
 | |      |  
 | |      |  
 Al|      |  
 | |      |  
 | | Al   |  
 | |      |  
 | |      |  
 Al|      |  
 | |      |  
 | | Al   |  
 | |      |  
 | |      |  
 Al|      |  
 | |      |  
 | | Al   |  
 | |      |  
 | |      |  
 | |      |  
 | |      |  
 | |      |  
 | |      |  
 | |      |  
 | |      |  
 | |      |  
 | |      |  
 | |      |  
 | |      |  
 | |      |  
 | |      |  
 | |      |  
 | |      |  
 | .------.  
 |/      /   
 *------*    

Positions:
   0 Al     1.429625    1.429625   15.000000
   1 Al     0.000000    0.000000   17.021795
   2 Al     1.429625    1.429625   19.043589
   3 Al     0.000000    0.000000   21.065384
   4 Al     1.429625    1.429625   23.087179
   5 Al     0.000000    0.000000   25.108973
   6 Al     1.429625    1.429625   27.130768
   7 Al     0.000000    0.000000   29.152563
   8 Al     1.429625    1.429625   31.174357
   9 Al     0.000000    0.000000   33.196152
  10 Al     1.429625    1.429625   35.217946
  11 Al     0.000000    0.000000   37.239741
  12 Al     1.429625    1.429625   39.261536
  13 Al     0.000000    0.000000   41.283330
  14 C      0.000000    0.000000   43.260707
  15 O      0.000000    0.000000   44.436612

Unit cell:
           periodic     x           y           z      points  spacing
  1. axis:    yes    2.859249    0.000000    0.000000    16     0.1787
  2. axis:    yes    0.000000    2.859249    0.000000    16     0.1787
  3. axis:    no     0.000000    0.000000   56.283330   315     0.1787

  Lengths:   2.859249   2.859249  56.283330
  Angles:   90.000000  90.000000  90.000000

Effective grid spacing dv^(1/3) = 0.1787

                     log10-error:    total        iterations:
           time      wfs    density  energy       fermi  poisson
iter:   1  12:36:07  -1.80   +inf   -62.657388    3             
iter:   2  12:36:10  -3.01  -2.07   -64.450691    33            
iter:   3  12:36:13  -3.58  -1.09   -62.719242    33            
iter:   4  12:36:17  -4.27  -1.78   -63.033111    3             
iter:   5  12:36:20  -4.62  -1.40   -62.642034    2             
iter:   6  12:36:23  -4.52  -2.26   -62.642116    3             
iter:   7  12:36:26  -4.78  -2.26   -62.637241    3             
iter:   8  12:36:29  -4.59  -2.48   -62.672763    3             
iter:   9  12:36:32  -4.92  -1.93   -62.659422    3             
iter:  10  12:36:36  -3.78  -2.00   -62.654474    3             
iter:  11  12:36:39  -4.01  -2.05   -62.743614    3             
iter:  12  12:36:42  -4.50  -1.66   -62.640086    3             
iter:  13  12:36:45  -4.82  -2.36   -62.639152    3             
iter:  14  12:36:48  -5.41  -2.33   -62.636925    3             
iter:  15  12:36:52  -5.41  -2.49   -62.636460    3             
iter:  16  12:36:55  -6.26  -2.50   -62.634866    3             
iter:  17  12:36:58  -5.76  -2.72   -62.635247    2             
iter:  18  12:37:01  -6.32  -2.62   -62.634773    3             
iter:  19  12:37:04  -5.18  -2.78   -62.645257    2             
iter:  20  12:37:07  -5.77  -2.20   -62.634716    2             
iter:  21  12:37:11  -5.96  -2.77   -62.640737    3             
iter:  22  12:37:14  -6.24  -2.32   -62.634181    3             
iter:  23  12:37:17  -6.77  -3.11   -62.634035    2             
iter:  24  12:37:20  -7.35  -3.66   -62.634069    2             
iter:  25  12:37:23  -6.85  -3.45   -62.634074    2             
iter:  26  12:37:26  -7.11  -3.52   -62.634116    2             
iter:  27  12:37:30  -7.06  -3.33   -62.634467    2             
iter:  28  12:37:33  -7.26  -2.86   -62.634146    3             
iter:  29  12:37:36  -7.74  -3.21   -62.634042    2             
iter:  30  12:37:39  -8.18  -3.88   -62.634035    2             
iter:  31  12:37:42  -8.01  -3.88   -62.634048    2             
iter:  32  12:37:46  -7.54  -3.62   -62.634046    2             
iter:  33  12:37:49  -7.61  -3.79   -62.634194    2             
iter:  34  12:37:52  -7.70  -3.16   -62.634038    2             
iter:  35  12:37:55  -7.68  -3.58   -62.634046    2             
iter:  36  12:37:58  -8.26  -3.65   -62.634045    2             
iter:  37  12:38:02  -8.79  -3.80   -62.634037    2             
iter:  38  12:38:05  -8.94  -4.32   -62.634038    2             

Converged after 38 iterations.

Dipole moment: (-0.000000, -0.000000, -0.135351) |e|*Ang

Energy contributions relative to reference atoms: (reference = -95516.406125)

Kinetic:        +45.837356
Potential:      -20.020243
External:        +0.000000
XC:             -87.979547
Entropy (-ST):   -0.213962
Local:           -0.364623
--------------------------
Free energy:    -62.741018
Extrapolated:   -62.634038

Fermi level: 1.58380

Warning: Showing only first 2 kpts
 Kpt  Band  Eigenvalues  Occupancy
  0    24      4.70729    0.00000
  0    25      4.90089    0.00000
  0    26      5.79678    0.00000
  0    27      6.01773    0.00000

  1    24      4.54691    0.00000
  1    25      4.68129    0.00000
  1    26      4.73896    0.00000
  1    27      4.87136    0.00000



Forces in eV/Ang:
  0 Al    0.00000    0.00000   -0.08023
  1 Al    0.00000    0.00000    0.04736
  2 Al    0.00000    0.00000    0.04090
  3 Al    0.00000    0.00000    0.02651
  4 Al    0.00000    0.00000   -0.02933
  5 Al    0.00000    0.00000    0.01588
  6 Al    0.00000    0.00000   -0.01520
  7 Al    0.00000    0.00000   -0.00229
  8 Al    0.00000    0.00000   -0.00713
  9 Al    0.00000    0.00000   -0.02124
 10 Al    0.00000    0.00000    0.00042
 11 Al    0.00000    0.00000   -0.04392
 12 Al    0.00000    0.00000    0.07043
 13 Al    0.00000    0.00000   -0.05736
 14 C    -0.00000    0.00000   -0.00668
 15 O     0.00000    0.00000    0.07805

System changes: positions 

Initializing position-dependent things.

Density initialized from wave functions
   .------.  
  /|      |  
 * |      |  
 | |      |  
 | |      |  
 | |      |  
 | |      |  
 | |      |  
 | |      |  
 | |      |  
 | |      |  
 | |      |  
 | |      |  
 | |      |  
 | |      |  
 | |      |  
 | |      |  
 O |      |  
 C |      |  
 | |      |  
 Al|      |  
 | |      |  
 | | Al   |  
 | |      |  
 | |      |  
 Al|      |  
 | |      |  
 | | Al   |  
 | |      |  
 | |      |  
 Al|      |  
 | |      |  
 | | Al   |  
 | |      |  
 | |      |  
 Al|      |  
 | |      |  
 | | Al   |  
 | |      |  
 | |      |  
 Al|      |  
 | |      |  
 | | Al   |  
 | |      |  
 | |      |  
 Al|      |  
 | |      |  
 | | Al   |  
 | |      |  
 | |      |  
 Al|      |  
 | |      |  
 | | Al   |  
 | |      |  
 | |      |  
 | |      |  
 | |      |  
 | |      |  
 | |      |  
 | |      |  
 | |      |  
 | |      |  
 | |      |  
 | |      |  
 | |      |  
 | |      |  
 | |      |  
 | |      |  
 | |      |  
 | .------.  
 |/      /   
 *------*    

Positions:
   0 Al     1.429625    1.429625   15.000000
   1 Al     0.000000    0.000000   17.021795
   2 Al     1.429625    1.429625   19.043589
   3 Al     0.000000    0.000000   21.065384
   4 Al     1.429625    1.429625   23.087179
   5 Al     0.000000    0.000000   25.108973
   6 Al     1.429625    1.429625   27.130768
   7 Al     0.000000    0.000000   29.152563
   8 Al     1.429625    1.429625   31.174357
   9 Al     0.000000    0.000000   33.196152
  10 Al     1.429625    1.429625   35.217946
  11 Al     0.000000    0.000000   37.239741
  12 Al     1.429625    1.429625   39.261536
  13 Al     0.000000    0.000000   41.283330
  14 C     -0.000000    0.000000   43.261011
  15 O      0.000000    0.000000   44.437276

Unit cell:
           periodic     x           y           z      points  spacing
  1. axis:    yes    2.859249    0.000000    0.000000    16     0.1787
  2. axis:    yes    0.000000    2.859249    0.000000    16     0.1787
  3. axis:    no     0.000000    0.000000   56.283330   315     0.1787

  Lengths:   2.859249   2.859249  56.283330
  Angles:   90.000000  90.000000  90.000000

Effective grid spacing dv^(1/3) = 0.1787

                     log10-error:    total        iterations:
           time      wfs    density  energy       fermi  poisson
iter:   1  12:38:10  -2.87   +inf   -62.729345    3             
iter:   2  12:38:13  -2.44  -1.70  -106.820508    33            
iter:   3  12:38:16  -2.42  -0.38   -63.437240    33            
iter:   4  12:38:20  -3.04  -1.25   -62.726400    33            
iter:   5  12:38:23  -3.72  -1.72   -62.636821    3             
iter:   6  12:38:26  -4.44  -2.49   -62.635489    3             
iter:   7  12:38:29  -5.01  -2.63   -62.635858    3             
iter:   8  12:38:32  -5.01  -2.56   -62.634223    2             
iter:   9  12:38:35  -5.64  -3.20   -62.636431    3             
iter:  10  12:38:39  -5.94  -2.52   -62.635822    3             
iter:  11  12:38:42  -6.29  -2.61   -62.634099    3             
iter:  12  12:38:45  -5.53  -3.58   -62.634836    2             
iter:  13  12:38:48  -6.31  -2.75   -62.634281    2             
iter:  14  12:38:51  -5.95  -3.04   -62.634163    2             
iter:  15  12:38:55  -6.74  -3.24   -62.634171    2             
iter:  16  12:38:58  -7.35  -3.18   -62.634326    2             
iter:  17  12:39:01  -7.35  -3.03   -62.634084    2             
iter:  18  12:39:04  -7.36  -3.58   -62.634064    2             
iter:  19  12:39:07  -7.70  -3.71   -62.634071    2             
iter:  20  12:39:11  -7.71  -3.80   -62.634078    2             
iter:  21  12:39:14  -7.97  -3.70   -62.634140    2             
iter:  22  12:39:17  -8.02  -3.27   -62.634088    2             
iter:  23  12:39:20  -8.81  -3.58   -62.634063    2             
iter:  24  12:39:23  -9.48  -4.07   -62.634065    2             

Converged after 24 iterations.

Dipole moment: (-0.000000, -0.000000, -0.135460) |e|*Ang

Energy contributions relative to reference atoms: (reference = -95516.406125)

Kinetic:        +45.779782
Potential:      -19.975810
External:        +0.000000
XC:             -87.967394
Entropy (-ST):   -0.213971
Local:           -0.363657
--------------------------
Free energy:    -62.741051
Extrapolated:   -62.634065

Fermi level: 1.58324

Warning: Showing only first 2 kpts
 Kpt  Band  Eigenvalues  Occupancy
  0    24      4.70390    0.00000
  0    25      4.90030    0.00000
  0    26      5.79643    0.00000
  0    27      6.01809    0.00000

  1    24      4.54734    0.00000
  1    25      4.68077    0.00000
  1    26      4.73584    0.00000
  1    27      4.87079    0.00000



Forces in eV/Ang:
  0 Al   -0.00000    0.00000   -0.07998
  1 Al    0.00000    0.00000    0.04802
  2 Al    0.00000    0.00000    0.04141
  3 Al    0.00000    0.00000    0.02710
  4 Al    0.00000    0.00000   -0.02888
  5 Al    0.00000    0.00000    0.01586
  6 Al   -0.00000    0.00000   -0.01530
  7 Al   -0.00000    0.00000   -0.00359
  8 Al    0.00000    0.00000   -0.00862
  9 Al    0.00000    0.00000   -0.02320
 10 Al    0.00000    0.00000   -0.00126
 11 Al    0.00000    0.00000   -0.04516
 12 Al    0.00000    0.00000    0.06917
 13 Al   -0.00000    0.00000   -0.05416
 14 C     0.00000    0.00000    0.03344
 15 O     0.00000    0.00000    0.01885

System changes: positions 

Initializing position-dependent things.

Density initialized from wave functions
   .------.  
  /|      |  
 * |      |  
 | |      |  
 | |      |  
 | |      |  
 | |      |  
 | |      |  
 | |      |  
 | |      |  
 | |      |  
 | |      |  
 | |      |  
 | |      |  
 | |      |  
 | |      |  
 | |      |  
 O |      |  
 C |      |  
 | |      |  
 Al|      |  
 | |      |  
 | | Al   |  
 | |      |  
 | |      |  
 Al|      |  
 | |      |  
 | | Al   |  
 | |      |  
 | |      |  
 Al|      |  
 | |      |  
 | | Al   |  
 | |      |  
 | |      |  
 Al|      |  
 | |      |  
 | | Al   |  
 | |      |  
 | |      |  
 Al|      |  
 | |      |  
 | | Al   |  
 | |      |  
 | |      |  
 Al|      |  
 | |      |  
 | | Al   |  
 | |      |  
 | |      |  
 Al|      |  
 | |      |  
 | | Al   |  
 | |      |  
 | |      |  
 | |      |  
 | |      |  
 | |      |  
 | |      |  
 | |      |  
 | |      |  
 | |      |  
 | |      |  
 | |      |  
 | |      |  
 | |      |  
 | |      |  
 | |      |  
 | |      |  
 | .------.  
 |/      /   
 *------*    

Positions:
   0 Al     1.429625    1.429625   15.000000
   1 Al     0.000000    0.000000   17.021795
   2 Al     1.429625    1.429625   19.043589
   3 Al     0.000000    0.000000   21.065384
   4 Al     1.429625    1.429625   23.087179
   5 Al     0.000000    0.000000   25.108973
   6 Al     1.429625    1.429625   27.130768
   7 Al     0.000000    0.000000   29.152563
   8 Al     1.429625    1.429625   31.174357
   9 Al     0.000000    0.000000   33.196152
  10 Al     1.429625    1.429625   35.217946
  11 Al     0.000000    0.000000   37.239741
  12 Al     1.429625    1.429625   39.261536
  13 Al     0.000000    0.000000   41.283330
  14 C     -0.000000    0.000000   43.262129
  15 O      0.000000    0.000000   44.438416

Unit cell:
           periodic     x           y           z      points  spacing
  1. axis:    yes    2.859249    0.000000    0.000000    16     0.1787
  2. axis:    yes    0.000000    2.859249    0.000000    16     0.1787
  3. axis:    no     0.000000    0.000000   56.283330   315     0.1787

  Lengths:   2.859249   2.859249  56.283330
  Angles:   90.000000  90.000000  90.000000

Effective grid spacing dv^(1/3) = 0.1787

                     log10-error:    total        iterations:
           time      wfs    density  energy       fermi  poisson
iter:   1  12:39:28  -2.36   +inf   -62.781665    3             
iter:   2  12:39:32  -1.58  -1.61  -145.487589    33            
iter:   3  12:39:35  -2.27  -0.25   -62.751784    32            
iter:   4  12:39:38  -3.08  -1.66   -62.642107    3             
iter:   5  12:39:41  -4.24  -2.30   -62.663965    3             
iter:   6  12:39:44  -4.89  -1.97   -62.664447    3             
iter:   7  12:39:48  -5.35  -1.94   -62.634937    3             
iter:   8  12:39:51  -4.93  -2.81   -62.635025    3             
iter:   9  12:39:54  -5.41  -2.81   -62.635099    2             
iter:  10  12:39:57  -5.07  -2.72   -62.665660    2             
iter:  11  12:40:00  -5.31  -2.01   -62.646144    3             
iter:  12  12:40:03  -5.82  -2.16   -62.634372    3             
iter:  13  12:40:07  -6.00  -3.12   -62.639195    3             
iter:  14  12:40:10  -6.42  -2.32   -62.634245    2             
iter:  15  12:40:13  -6.94  -3.15   -62.634196    2             
iter:  16  12:40:16  -6.75  -3.35   -62.634239    2             
iter:  17  12:40:19  -7.08  -3.25   -62.634578    3             
iter:  18  12:40:22  -7.01  -2.94   -62.634217    3             
iter:  19  12:40:26  -6.66  -3.16   -62.634919    2             
iter:  20  12:40:29  -7.15  -2.74   -62.634172    2             
iter:  21  12:40:32  -7.49  -3.34   -62.634161    2             
iter:  22  12:40:35  -7.06  -3.34   -62.634133    2             
iter:  23  12:40:38  -7.59  -3.63   -62.634193    2             
iter:  24  12:40:42  -7.37  -3.22   -62.634226    3             
iter:  25  12:40:45  -7.49  -3.31   -62.634235    2             
iter:  26  12:40:48  -7.58  -3.13   -62.634133    2             
iter:  27  12:40:51  -8.01  -3.70   -62.634167    2             
iter:  28  12:40:54  -8.26  -3.39   -62.634130    2             
iter:  29  12:40:57  -8.29  -3.76   -62.634158    2             
iter:  30  12:41:01  -7.87  -3.56   -62.634125    2             
iter:  31  12:41:04  -7.99  -3.53   -62.634177    2             
iter:  32  12:41:07  -8.37  -3.34   -62.634131    2             
iter:  33  12:41:10  -8.09  -3.79   -62.634143    2             
iter:  34  12:41:13  -8.10  -3.68   -62.634128    2             
iter:  35  12:41:16  -8.60  -3.93   -62.634123    2             
iter:  36  12:41:20  -8.47  -3.80   -62.634149    2             
iter:  37  12:41:23  -8.55  -3.56   -62.634126    2             
iter:  38  12:41:26  -8.71  -3.82   -62.634122    2             
iter:  39  12:41:29  -8.07  -4.20   -62.634123    2             

Converged after 39 iterations.

Dipole moment: (-0.000000, -0.000000, -0.135104) |e|*Ang

Energy contributions relative to reference atoms: (reference = -95516.406125)

Kinetic:        +45.752515
Potential:      -19.955650
External:        +0.000000
XC:             -87.960718
Entropy (-ST):   -0.213984
Local:           -0.363278
--------------------------
Free energy:    -62.741115
Extrapolated:   -62.634123

Fermi level: 1.58394

Warning: Showing only first 2 kpts
 Kpt  Band  Eigenvalues  Occupancy
  0    24      4.70387    0.00000
  0    25      4.90043    0.00000
  0    26      5.79660    0.00000
  0    27      6.01901    0.00000

  1    24      4.54816    0.00000
  1    25      4.68172    0.00000
  1    26      4.73586    0.00000
  1    27      4.87160    0.00000



Forces in eV/Ang:
  0 Al    0.00000    0.00000   -0.08100
  1 Al    0.00000    0.00000    0.04674
  2 Al    0.00000    0.00000    0.04004
  3 Al    0.00000    0.00000    0.02651
  4 Al    0.00000    0.00000   -0.02839
  5 Al    0.00000    0.00000    0.01701
  6 Al    0.00000    0.00000   -0.01323
  7 Al    0.00000    0.00000   -0.00154
  8 Al    0.00000    0.00000   -0.00731
  9 Al    0.00000    0.00000   -0.02256
 10 Al    0.00000    0.00000   -0.00189
 11 Al    0.00000    0.00000   -0.04754
 12 Al    0.00000    0.00000    0.06495
 13 Al    0.00000    0.00000   -0.04464
 14 C     0.00000    0.00000    0.03012
 15 O     0.00000    0.00000    0.00815

System changes: positions 

Initializing position-dependent things.

Density initialized from wave functions
   .------.  
  /|      |  
 * |      |  
 | |      |  
 | |      |  
 | |      |  
 | |      |  
 | |      |  
 | |      |  
 | |      |  
 | |      |  
 | |      |  
 | |      |  
 | |      |  
 | |      |  
 | |      |  
 | |      |  
 O |      |  
 C |      |  
 | |      |  
 Al|      |  
 | |      |  
 | | Al   |  
 | |      |  
 | |      |  
 Al|      |  
 | |      |  
 | | Al   |  
 | |      |  
 | |      |  
 Al|      |  
 | |      |  
 | | Al   |  
 | |      |  
 | |      |  
 Al|      |  
 | |      |  
 | | Al   |  
 | |      |  
 | |      |  
 Al|      |  
 | |      |  
 | | Al   |  
 | |      |  
 | |      |  
 Al|      |  
 | |      |  
 | | Al   |  
 | |      |  
 | |      |  
 Al|      |  
 | |      |  
 | | Al   |  
 | |      |  
 | |      |  
 | |      |  
 | |      |  
 | |      |  
 | |      |  
 | |      |  
 | |      |  
 | |      |  
 | |      |  
 | |      |  
 | |      |  
 | |      |  
 | |      |  
 | |      |  
 | |      |  
 | .------.  
 |/      /   
 *------*    

Positions:
   0 Al     1.429625    1.429625   15.000000
   1 Al     0.000000    0.000000   17.021795
   2 Al     1.429625    1.429625   19.043589
   3 Al     0.000000    0.000000   21.065384
   4 Al     1.429625    1.429625   23.087179
   5 Al     0.000000    0.000000   25.108973
   6 Al     1.429625    1.429625   27.130768
   7 Al     0.000000    0.000000   29.152563
   8 Al     1.429625    1.429625   31.174357
   9 Al     0.000000    0.000000   33.196152
  10 Al     1.429625    1.429625   35.217946
  11 Al     0.000000    0.000000   37.239741
  12 Al     1.429625    1.429625   39.261536
  13 Al     0.000000    0.000000   41.283330
  14 C     -0.000000    0.000000   43.265255
  15 O      0.000000    0.000000   44.441464

Unit cell:
           periodic     x           y           z      points  spacing
  1. axis:    yes    2.859249    0.000000    0.000000    16     0.1787
  2. axis:    yes    0.000000    2.859249    0.000000    16     0.1787
  3. axis:    no     0.000000    0.000000   56.283330   315     0.1787

  Lengths:   2.859249   2.859249  56.283330
  Angles:   90.000000  90.000000  90.000000

Effective grid spacing dv^(1/3) = 0.1787

                     log10-error:    total        iterations:
           time      wfs    density  energy       fermi  poisson
iter:   1  12:41:34  -1.51   +inf   -62.779112    3             
iter:   2  12:41:38  -1.58  -1.64  -123.714801    3             
iter:   3  12:41:41  -2.42  -0.32   -63.088216    3             
iter:   4  12:41:44  -3.52  -1.38   -63.029131    32            
iter:   5  12:41:47  -4.09  -1.43   -62.710490    3             
iter:   6  12:41:50  -4.26  -1.81   -62.816173    3             
iter:   7  12:41:53  -4.65  -1.56   -62.636666    3             
iter:   8  12:41:57  -4.34  -2.61   -62.639413    2             
iter:   9  12:42:00  -4.80  -2.35   -62.641603    3             
iter:  10  12:42:03  -4.65  -2.34   -62.756196    3             
iter:  11  12:42:06  -4.91  -1.65   -62.652207    3             
iter:  12  12:42:09  -4.57  -2.10   -62.699348    3             
iter:  13  12:42:12  -4.86  -1.79   -62.636564    3             
iter:  14  12:42:16  -5.13  -2.57   -62.635216    2             
iter:  15  12:42:19  -5.59  -2.77   -62.635658    3             
iter:  16  12:42:22  -4.96  -2.62   -62.649210    3             
iter:  17  12:42:25  -5.46  -2.11   -62.639709    3             
iter:  18  12:42:28  -5.79  -2.38   -62.646066    3             
iter:  19  12:42:31  -5.92  -2.19   -62.636719    3             
iter:  20  12:42:35  -5.74  -2.50   -62.635105    2             
iter:  21  12:42:38  -6.14  -2.70   -62.634599    2             
iter:  22  12:42:41  -6.14  -2.93   -62.635696    2             
iter:  23  12:42:44  -6.33  -2.58   -62.635859    3             
iter:  24  12:42:47  -5.68  -2.64   -62.637317    3             
iter:  25  12:42:50  -6.01  -2.49   -62.635137    3             
iter:  26  12:42:54  -6.46  -2.75   -62.634632    2             
iter:  27  12:42:57  -6.72  -2.92   -62.634908    2             
iter:  28  12:43:00  -6.51  -2.76   -62.634602    2             
iter:  29  12:43:03  -6.99  -2.93   -62.634395    3             
iter:  30  12:43:07  -6.45  -3.04   -62.634363    3             
iter:  31  12:43:10  -6.40  -3.24   -62.634438    3             
iter:  32  12:43:13  -6.72  -2.99   -62.634387    2             
iter:  33  12:43:16  -6.46  -3.09   -62.637066    2             
iter:  34  12:43:19  -6.76  -2.47   -62.634411    2             
iter:  35  12:43:22  -7.34  -3.04   -62.634352    2             
iter:  36  12:43:26  -7.50  -3.19   -62.634236    2             
iter:  37  12:43:29  -7.27  -3.62   -62.634398    2             
iter:  38  12:43:32  -7.13  -3.09   -62.634299    2             
iter:  39  12:43:35  -6.79  -3.26   -62.635473    2             
iter:  40  12:43:38  -6.74  -2.67   -62.634387    2             
iter:  41  12:43:41  -7.07  -3.11   -62.634391    3             
iter:  42  12:43:45  -7.35  -3.05   -62.634262    2             
iter:  43  12:43:48  -7.90  -3.42   -62.634222    2             
iter:  44  12:43:51  -7.84  -3.76   -62.634261    2             
iter:  45  12:43:54  -6.97  -3.41   -62.634253    2             
iter:  46  12:43:57  -7.31  -3.44   -62.634262    2             
iter:  47  12:44:01  -6.82  -3.44   -62.635601    3             
iter:  48  12:44:04  -6.82  -2.68   -62.634294    3             
iter:  49  12:44:07  -7.57  -3.25   -62.634262    2             
iter:  50  12:44:10  -8.45  -3.42   -62.634227    2             
iter:  51  12:44:13  -9.01  -4.01   -62.634229    1             

Converged after 51 iterations.

Dipole moment: (-0.000000, -0.000000, -0.134896) |e|*Ang

Energy contributions relative to reference atoms: (reference = -95516.406125)

Kinetic:        +45.676997
Potential:      -19.898739
External:        +0.000000
XC:             -87.942686
Entropy (-ST):   -0.213973
Local:           -0.362815
--------------------------
Free energy:    -62.741215
Extrapolated:   -62.634229

Fermi level: 1.58474

Warning: Showing only first 2 kpts
 Kpt  Band  Eigenvalues  Occupancy
  0    24      4.70918    0.00000
  0    25      4.89951    0.00000
  0    26      5.79581    0.00000
  0    27      6.01983    0.00000

  1    24      4.54911    0.00000
  1    25      4.68239    0.00000
  1    26      4.74074    0.00000
  1    27      4.87215    0.00000



Forces in eV/Ang:
  0 Al    0.00000    0.00000   -0.08020
  1 Al    0.00000    0.00000    0.04787
  2 Al    0.00000    0.00000    0.04149
  3 Al    0.00000    0.00000    0.02764
  4 Al    0.00000    0.00000   -0.02806
  5 Al    0.00000    0.00000    0.01609
  6 Al    0.00000    0.00000   -0.01513
  7 Al    0.00000    0.00000   -0.00402
  8 Al    0.00000    0.00000   -0.00942
  9 Al    0.00000    0.00000   -0.02357
 10 Al   -0.00000    0.00000   -0.00155
 11 Al    0.00000    0.00000   -0.04595
 12 Al    0.00000    0.00000    0.06811
 13 Al    0.00000    0.00000   -0.01387
 14 C     0.00000    0.00000   -0.00030
 15 O     0.00000    0.00000   -0.00004

Timing:                                      incl.     excl.
-------------------------------------------------------------------
Density initialized from wave functions:     6.959     6.708   0.5% |
 Symmetrize density:                         0.251     0.251   0.0% |
Forces:                                     11.399    11.399   0.9% |
Hamiltonian:                                 4.623     0.022   0.0% |
 Atomic:                                     0.386     0.386   0.0% |
  XC Correction:                             0.000     0.000   0.0% |
 Calculate atomic Hamiltonians:              1.185     1.185   0.1% |
 Communicate:                                0.001     0.001   0.0% |
 Initialize Hamiltonian:                     0.000     0.000   0.0% |
 Poisson:                                    0.035     0.035   0.0% |
 XC 3D grid:                                 2.993     2.993   0.2% |
LCAO initialization:                         2.249     0.141   0.0% |
 LCAO eigensolver:                           0.782     0.000   0.0% |
  Calculate projections:                     0.000     0.000   0.0% |
  DenseAtomicCorrection:                     0.001     0.001   0.0% |
  Distribute overlap matrix:                 0.000     0.000   0.0% |
  Orbital Layouts:                           0.001     0.001   0.0% |
  Potential matrix:                          0.779     0.779   0.1% |
  Sum over cells:                            0.001     0.001   0.0% |
 LCAO to grid:                               0.544     0.544   0.0% |
 Set positions (LCAO WFS):                   0.781     0.000   0.0% |
  Basic WFS set positions:                   0.003     0.003   0.0% |
  Basis functions set positions:             0.000     0.000   0.0% |
  TCI: Calculate S, T, P:                    0.778     0.778   0.1% |
PWDescriptor:                                0.015     0.015   0.0% |
Redistribute:                                0.003     0.003   0.0% |
SCF-cycle:                                1237.375   276.860  21.9% |--------|
 Davidson:                                 169.751    60.382   4.8% |-|
  calc. matrices:                           97.774    97.774   7.7% |--|
  diagonalize:                               2.258     2.258   0.2% |
  rotate_psi:                                9.336     9.336   0.7% |
 Density:                                  446.732     0.012   0.0% |
  Atomic density matrices:                   1.307     1.307   0.1% |
  Mix:                                     267.977   267.977  21.2% |-------|
  Multipole moments:                         0.175     0.175   0.0% |
  Pseudo density:                          177.260   161.115  12.7% |----|
   Symmetrize density:                      16.144    16.144   1.3% ||
 Hamiltonian:                              242.936     1.293   0.1% |
  Atomic:                                   21.251    21.248   1.7% ||
   XC Correction:                            0.003     0.003   0.0% |
  Calculate atomic Hamiltonians:            51.427    51.427   4.1% |-|
  Communicate:                               0.075     0.075   0.0% |
  Poisson:                                   2.190     2.190   0.2% |
  XC 3D grid:                              166.700   166.700  13.2% |----|
 Orthonormalize:                             0.550     0.001   0.0% |
  Band Layouts:                              0.001     0.000   0.0% |
   Inverse Cholesky:                         0.001     0.001   0.0% |
  calc_s_matrix:                             0.042     0.042   0.0% |
  projections:                               0.415     0.415   0.0% |
  rotate_psi:                                0.092     0.092   0.0% |
 Subspace diag:                            100.546     0.030   0.0% |
  Band Layouts:                              0.354     0.008   0.0% |
   Diagonalize:                              0.338     0.338   0.0% |
   Distribute results:                       0.008     0.008   0.0% |
  calc_h_matrix:                            92.276    92.276   7.3% |--|
  rotate_psi:                                7.886     7.886   0.6% |
Set symmetry:                                0.124     0.124   0.0% |
Other:                                       3.632     3.632   0.3% |
-------------------------------------------------------------------
Total:                                              1266.379 100.0%

Memory usage: 403.78 MiB
Date: Tue Feb 20 12:44:15 2018
                                                                                                                                                                                                                                                                                                                                                                                                                                                                                                                                                                                                                                                                                                                                                                                                                                                                                                                                                                                                                                                                                                                                                                                                                                                                                                                                                                                                                                                                                                                                                                                                                                                                                                                                                                                                                                                                                                                                                                                                                                                                                                                                                                                                                                                                                                                                                                                                                                                                                                                                                                                                                                                                                                                                                                                                                                                                                                                                                                                                                                                                                                                                                                                                                                                                                                                                                                                                                                                                                                                                                                                                                                                                                                                                                                                                                                                                                                                                                                                                                                                                                                                                                                                                                                                                                                                                                                                                                                                                                                                                                                                                                                                                                                                                                                                                                                                                                                                                                                                                                                                                                                                                                                                                                                                                                                                                                                                                                                                                                                                                                                                                                                                                                                                                                                                                                                                                                                                                                                                                                                                                                                                                                                                                                                                                                                                                                                                                                                                                                                                                                                                                                                                                                                                                                                                                                                                                                                                                                                                                                                                                                                                                                                                                                                                                                                                                                                                                                                                                                                                                                                                                                                                                                                                                                                                                                                                                                                                                                                                                                                                                                                                                                                                                                                                                                                                                                                                                                                                                                                                                                                                                                                                                                                                                                                                                                                                                                                                                                                                                                                                                                                                                                                                                                                                                                                                                                                                                                                                                                                                                                                                                                                                                                                                                                                                                                                                                                                                                                                                                                                                                                                                                                                                                                                                                                                                                                                                                                                                                                                                                                                                                                                                                                                                                                                                                                                                                                                                                                                                                                                                                                                                                                                                                                                                                                                                                                                                                                                                                                                                                                                                                                                                                                                                                                                                                                                                                                                                                                                                                                                                                                                                                                                                                                                                                                                                                                                                                                                                                                                                                                                                                                                                                                                                                                                                                                                                                                                                                                                                                                                                                                                                                                                                                                                                                                                                                                                                                                                                                                                                                                                                                                                                                                                                                                                                                                                                                                                                                                                                                                                                                                                                                                                                                                                                                                                                                                                                                                                                                                                                                                                                                                                                                                                                                                                                                                                                                                                                                                                                                                                                                                                                                                                                                                                                                                                                                                                                                                                                                                                                                                                                                                                                                                                                                                                                                                                                                                                                                                                                                                                                                                                                                                                                                                                                                                                                                                                                                                                                                                                                                                                                                                                                                                                                                                                                                                                                                                                                                                                                                                                                                                                                                                                                                                                                                                                                                                                                                                                                                                                                                                                                                                                                                                                                                                                                                                                                                                                                                                                                                                                                                                                                                                                                                                                                                                                                                                                                                                                                                                                                                                                                                                                                                                                                                                                                                                                                                                                                                                                                                                                                                                                                                                                                                                                                                                                                                                                                                                                                                                                                                                                                                                                                                                                                                                                                                                                                                                                                                                                                                                                                                                                                                                                                                                                                                                                                                                                                                                                                                                                                                                                                                                                                                                                                                                                                                                                                                                                                                                                                                                                                                                                                                                                                                                                                                                                                                                                                                                                                                                                                                                                                                                                                                                                                                                                                                                                                                                                                                                                                                                                                                                                                                                                                                                                                                                                                                                                                                                                                                                                                                                                                                                                                                                                                                                                                                                                                                                                                                                                                                                                                                                                                                                                                                                                                                                                                                                                                                                                                                                                                                                                                                                                                                                                                                                                                                                                                                                                                                                                                                                                                                                                                                                                                                                                                                                                                                                                                                                                                                                                                                                                                                                                                                                                                                                                                                                                                                                                                                                                                                                                                                                                                                                                                                                                                                                                                                                                                                                                                                                                                                                                                                                                                                                                                                                                                                                                                                                                                                                                                                                                                                                                                                                                                                                                                                                                                                                                                                                                                                                                                                                                                                                                                                                                                                                                                                                                                                                                                                                                                                                                                       
Forces in eV/Ang:
  0 Al   -0.00000    0.00000   -0.06040
  1 Al    0.00000    0.00000    0.08054
  2 Al   -0.00000    0.00000   -0.03233
  3 Al   -0.00000    0.00000    0.01336
  4 Al   -0.00000    0.00000    0.01791
  5 Al   -0.00000    0.00000   -0.00785
  6 Al    0.00000    0.00000    0.00473
  7 Al    0.00000   -0.00000    0.00102
  8 Al    0.00000    0.00000   -0.02422
  9 Al    0.00000    0.00000    0.02161
 10 Al   -0.00000    0.00000    0.03142
 11 Al   -0.00000    0.00000   -0.00481
 12 Al   -0.00000    0.00000   -0.14051
 13 Al    0.00000   -0.00000    0.08133
 14 C     0.00000    0.00000   -0.00159
 15 O    -0.00000    0.00000    0.00436

Timing:                                      incl.     excl.
-------------------------------------------------------------------
Density initialized from wave functions:     8.361     8.179   0.2% |
 Symmetrize density:                         0.182     0.182   0.0% |
Forces:                                     10.930    10.930   0.2% |
Hamiltonian:                                 4.006     0.022   0.0% |
 Atomic:                                     0.442     0.442   0.0% |
  XC Correction:                             0.000     0.000   0.0% |
 Calculate atomic Hamiltonians:              0.685     0.685   0.0% |
 Communicate:                                0.001     0.001   0.0% |
 Initialize Hamiltonian:                     0.000     0.000   0.0% |
 Poisson:                                    0.032     0.032   0.0% |
 XC 3D grid:                                 2.822     2.822   0.1% |
LCAO initialization:                         3.103     0.140   0.0% |
 LCAO eigensolver:                           0.715     0.000   0.0% |
  Calculate projections:                     0.001     0.001   0.0% |
  DenseAtomicCorrection:                     0.002     0.002   0.0% |
  Distribute overlap matrix:                 0.000     0.000   0.0% |
  Orbital Layouts:                           0.005     0.005   0.0% |
  Potential matrix:                          0.701     0.701   0.0% |
  Sum over cells:                            0.005     0.005   0.0% |
 LCAO to grid:                               1.333     1.333   0.0% |
 Set positions (LCAO WFS):                   0.916     0.000   0.0% |
  Basic WFS set positions:                   0.002     0.002   0.0% |
  Basis functions set positions:             0.000     0.000   0.0% |
  TCI: Calculate S, T, P:                    0.913     0.913   0.0% |
PWDescriptor:                                0.021     0.021   0.0% |
Redistribute:                                0.003     0.003   0.0% |
SCF-cycle:                                3312.871   472.164  10.2% |---|
 Davidson:                                 962.011   351.236   7.6% |--|
  calc. matrices:                          538.412   538.412  11.7% |----|
  diagonalize:                              14.476    14.476   0.3% |
  rotate_psi:                               57.887    57.887   1.3% ||
 Density:                                  945.679     0.029   0.0% |
  Atomic density matrices:                   3.410     3.410   0.1% |
  Mix:                                     351.137   351.137   7.6% |--|
  Multipole moments:                         0.366     0.366   0.0% |
  Pseudo density:                          590.737   569.964  12.4% |----|
   Symmetrize density:                      20.773    20.773   0.5% |
 Hamiltonian:                              389.473     2.288   0.0% |
  Atomic:                                   44.186    44.179   1.0% |
   XC Correction:                            0.006     0.006   0.0% |
  Calculate atomic Hamiltonians:            54.514    54.514   1.2% |
  Communicate:                               0.140     0.140   0.0% |
  Poisson:                                   3.365     3.365   0.1% |
  XC 3D grid:                              284.981   284.981   6.2% |-|
 Orthonormalize:                             1.623     0.002   0.0% |
  Band Layouts:                              0.004     0.000   0.0% |
   Inverse Cholesky:                         0.004     0.004   0.0% |
  calc_s_matrix:                             0.141     0.141   0.0% |
  projections:                               1.197     1.197   0.0% |
  rotate_psi:                                0.279     0.279   0.0% |
 Subspace diag:                            541.921     0.299   0.0% |
  Band Layouts:                              2.098     0.050   0.0% |
   Diagonalize:                              2.001     2.001   0.0% |
   Distribute results:                       0.047     0.047   0.0% |
  calc_h_matrix:                           492.920   492.920  10.7% |---|
  rotate_psi:                               46.603    46.603   1.0% |
Set symmetry:                                0.120     0.120   0.0% |
Other:                                    1274.711  1274.711  27.6% |----------|
-------------------------------------------------------------------
Total:                                              4614.127 100.0%

Memory usage: 403.78 MiB
Date: Tue Feb 20 12:44:15 2018
