
  ___ ___ ___ _ _ _  
 |   |   |_  | | | | 
 | | | | | . | | | | 
 |__ |  _|___|_____|  1.3.0
 |___|_|             

User:   analbin@hebbe12-4
Date:   Tue Feb 20 00:58:20 2018
Arch:   x86_64
Pid:    28178
Python: 2.7.14
gpaw:   /apps/Hebbe/software/MPI/intel/2017.4.196-GCC-6.4.0-2.28/impi/2017.3.196/GPAW/1.3.0-Python-2.7.14/lib/python2.7/site-packages/gpaw
_gpaw:  /apps/Hebbe/software/MPI/intel/2017.4.196-GCC-6.4.0-2.28/impi/2017.3.196/GPAW/1.3.0-Python-2.7.14/bin/
       gpaw-python
ase:    /apps/Hebbe/software/MPI/intel/2017.4.196-GCC-6.4.0-2.28/impi/2017.3.196/ASE/3.15.0-Python-2.7.14/lib/python2.7/site-packages/ase-3.15.0-py2.7.egg/ase (version 3.15.0)
numpy:  /apps/Hebbe/software/MPI/intel/2017.4.196-GCC-6.4.0-2.28/impi/2017.3.196/Python/2.7.14/lib/python2.7/site-packages/numpy-1.13.1-py2.7-linux-x86_64.egg/numpy (version 1.13.1)
scipy:  /apps/Hebbe/software/MPI/intel/2017.4.196-GCC-6.4.0-2.28/impi/2017.3.196/Python/2.7.14/lib/python2.7/site-packages/scipy-0.19.1-py2.7-linux-x86_64.egg/scipy (version 0.19.1)
units:  Angstrom and eV
cores:  20

Input parameters:
  h: 0.18
  kpts: [16 16  1]
  mixer: {backend: pulay,
          beta: 0.1,
          method: separate,
          nmaxold: 5,
          weight: 50.0}
  mode: {ecut: 350.0,
         name: pw}
  xc: PBE

System changes: positions, numbers, cell, pbc, initial_charges, initial_magmoms 

Initialize ...

Al-setup:
  name: Aluminium
  id: 0292cae29f5d6237e50f6abdd43a7bdd
  Z: 13
  valence: 3
  core: 10
  charge: 0.0
  file: /c3se/apps/Glenn/gpaw/gpaw-setups-0.9.11271/Al.PBE.gz
  cutoffs: 1.08(comp), 1.91(filt), 2.36(core), lmax=2
  valence states:
                energy  radius
    3s(2.00)    -7.753   1.085
    3p(1.00)    -2.712   1.085
    *s          19.459   1.085
    *p          24.499   1.085
    *d           0.000   1.085

  Using partial waves for Al as LCAO basis

C-setup:
  name: Carbon
  id: 4aa54d4b901d75f77cc0ea3eec22967b
  Z: 6
  valence: 4
  core: 2
  charge: 0.0
  file: /c3se/apps/Glenn/gpaw/gpaw-setups-0.9.11271/C.PBE.gz
  cutoffs: 0.64(comp), 1.14(filt), 1.14(core), lmax=2
  valence states:
                energy  radius
    2s(2.00)   -13.751   0.635
    2p(2.00)    -5.284   0.635
    *s          13.461   0.635
    *p          21.927   0.635
    *d           0.000   0.635

  Using partial waves for C as LCAO basis

O-setup:
  name: Oxygen
  id: 32ecd46bf208036f09c70b0ec9a88b78
  Z: 8
  valence: 6
  core: 2
  charge: 0.0
  file: /c3se/apps/Glenn/gpaw/gpaw-setups-0.9.11271/O.PBE.gz
  cutoffs: 0.67(comp), 1.17(filt), 0.83(core), lmax=2
  valence states:
                energy  radius
    2s(2.00)   -23.961   0.688
    2p(4.00)    -9.029   0.598
    *s           3.251   0.688
    *p          18.182   0.598
    *d           0.000   0.619

  Using partial waves for O as LCAO basis

Reference energy: -95516.406125

Spin-paired calculation

Occupation numbers:
  Fermi-Dirac: width=0.1000 eV

Convergence criteria:
  Maximum total energy change: 0.0005 eV / electron
  Maximum integral of absolute density change: 0.0001 electrons
  Maximum integral of absolute eigenstate change: 4e-08 eV^2
  Maximum number of iterations: 333

Symmetries present (total): 6

  ( 1  0  0)  ( 1 -1  0)  ( 0  1  0)  ( 0 -1  0)  (-1  1  0)  (-1  0  0)
  ( 0  1  0)  ( 0 -1  0)  ( 1  0  0)  ( 1 -1  0)  (-1  0  0)  (-1  1  0)
  ( 0  0  1)  ( 0  0  1)  ( 0  0  1)  ( 0  0  1)  ( 0  0  1)  ( 0  0  1)
Note: your k-points are not as symmetric as your crystal!

256 k-points: 16 x 16 x 1 Monkhorst-Pack grid
72 k-points in the irreducible part of the Brillouin zone
       k-points in crystal coordinates                weights
   0:     0.03125000   -0.03125000    0.00000000          2/256
   1:     0.03125000    0.03125000    0.00000000          2/256
   2:     0.09375000   -0.09375000    0.00000000          2/256
   3:     0.09375000   -0.03125000    0.00000000          4/256
   4:     0.09375000    0.03125000    0.00000000          4/256
   5:     0.09375000    0.09375000    0.00000000          2/256
   6:     0.15625000   -0.15625000    0.00000000          2/256
   7:     0.15625000   -0.09375000    0.00000000          4/256
   8:     0.15625000   -0.03125000    0.00000000          4/256
   9:     0.15625000    0.03125000    0.00000000          4/256
          ...
  71:     0.46875000    0.46875000    0.00000000          2/256

Wave functions: Plane wave expansion
  Cutoff energy: 350.000 eV
  Number of coefficients (min, max): 6282, 6517
  Using FFTW library
  Eigensolver: None  MatrixOperator buffer_size: default value or 
                              see value of nblock in input file
Diagonalizer layout: Serial LAPACKOrthonormalizer layout: Serial LAPACK 

Davidson(niter=1, smin=None, normalize=True) 

Densities:
  Coarse grid: 14*14*336 grid
  Fine grid: 28*28*672 grid
  Total Charge: 0.000000 

Density mixing:
  Method: separate
  Backend: pulay
  Linear mixing parameter: 0.1
  Mixing with 5 old densities
  Damping of long wave oscillations: 50 

Hamiltonian:
  XC and Coulomb potentials evaluated on a 28*28*672 grid
  Using the PBE Exchange-Correlation functional
 

Memory estimate:
  Process memory now: 109.91 MiB
  Calculator: 81.68 MiB
    Density: 32.83 MiB
      Arrays: 13.06 MiB
      Localized functions: 14.75 MiB
      Mixer: 5.02 MiB
    Hamiltonian: 8.94 MiB
      Arrays: 8.54 MiB
      XC: 0.00 MiB
      Poisson: 0.00 MiB
      vbar: 0.39 MiB
    Wavefunctions: 39.91 MiB
      Arrays psit_nG: 19.09 MiB
      Eigensolver: 7.49 MiB
      Projections: 0.61 MiB
      Projectors: 3.56 MiB
      Overlap op: 6.43 MiB
      PW-descriptor: 2.73 MiB

Total number of cores used: 20
Parallelization over k-points: 20

Number of atoms: 16
Number of atomic orbitals: 64
Number of bands in calculation: 64
Bands to converge: occupied states only
Number of valence electrons: 52

... initialized

Initializing position-dependent things.

Density initialized from atomic densities
Creating initial wave functions:
  64 bands from LCAO basis set

                    
                    
                    
                    
       O            
                    
       C            
                    
       Al           
                    
        Al          
                    
                    
                    
           Al       
                    
                    
       Al           
                    
        Al          
                    
                    
           Al       
                    
                    
       Al           
                    
        Al          
                    
                    
                    
           Al       
                    
                    
       Al           
                    
        Al          
                    
                    
           Al       
                    
                    
                    
       Al           
                    
        Al          
                    
                    
                    
                    

Positions:
   0 Al     0.000000    1.650788   15.000000
   1 Al     0.000000    0.000000   17.334567
   2 Al     1.429625    0.825394   19.669135
   3 Al     0.000000    1.650788   22.003702
   4 Al     0.000000    0.000000   24.338269
   5 Al     1.429625    0.825394   26.672837
   6 Al     0.000000    1.650788   29.007404
   7 Al     0.000000    0.000000   31.341972
   8 Al     1.429625    0.825394   33.676539
   9 Al     0.000000    1.650788   36.011106
  10 Al     0.000000    0.000000   38.345674
  11 Al     1.429625    0.825394   40.680241
  12 Al     0.000000    1.650788   43.014808
  13 Al     0.000000    0.000000   45.349376
  14 C      0.000000    0.000000   47.349376
  15 O      0.000000    0.000000   48.477376

Unit cell:
           periodic     x           y           z      points  spacing
  1. axis:    yes    2.859249    0.000000    0.000000    14     0.1769
  2. axis:    yes    1.429625    2.476183    0.000000    14     0.1769
  3. axis:    no     0.000000    0.000000   60.349376   336     0.1796

  Lengths:   2.859249   2.859249  60.349376
  Angles:   90.000000  90.000000  60.000000

Effective grid spacing dv^(1/3) = 0.1865

                     log10-error:    total        iterations:
           time      wfs    density  energy       fermi  poisson
iter:   1  00:58:30  +1.67   +inf  -340.858313    2             
iter:   2  00:58:32  +0.36   +inf  -343.815734    4             
iter:   3  00:58:35  -0.71   +inf  -344.047835    3             
iter:   4  00:58:39  +3.22  -0.12  -7958.120789    32            
iter:   5  00:58:43  +3.41  +0.07  -5629.010248    31            
iter:   6  00:58:47  +2.08  +0.13  -1637.540689    39            
iter:   7  00:58:51  +2.22  +0.03  -315.367705    38            
iter:   8  00:58:55  +2.85  -0.00  -1109.761632    36            
iter:   9  00:58:59  +2.97  -0.03  -3114.305978    39            
iter:  10  00:59:04  +2.29  +0.04  -1723.083078    37            
iter:  11  00:59:08  +1.91  +0.00  -1410.396933    33            
iter:  12  00:59:12  +2.95  +0.00  -7154.827509    35            
iter:  13  00:59:16  +2.99  +0.10  -1991.411808    37            
iter:  14  00:59:20  +2.41  -0.00     9.917451    39            
iter:  15  00:59:24  +1.96  +0.02    -1.015851    37            
iter:  16  00:59:28  +2.34  +0.03  -677.687021    32            
iter:  17  00:59:32  +2.08  -0.02  -364.646866    36            
iter:  18  00:59:37  +1.50  -0.17  -181.771469    38            
iter:  19  00:59:41  +1.22  -0.30  -412.028532    35            
iter:  20  00:59:45  +1.73  -0.07  -1172.178635    35            
iter:  21  00:59:49  +2.18  +0.08  -1687.369275    31            
iter:  22  00:59:53  +1.34  -0.04  -686.327936    35            
iter:  23  00:59:57  +1.47  -0.13  -1076.511009    37            
iter:  24  01:00:01  +1.01  -0.07  -497.215757    31            
iter:  25  01:00:06  +1.63  -0.06  -1294.888949    36            
iter:  26  01:00:10  +3.16  +0.03  -5833.277089    35            
iter:  27  01:00:14  +2.77  +0.09  -1796.274139    36            
iter:  28  01:00:18  +2.31  +0.08  -1292.021094    36            
iter:  29  01:00:22  +1.67  +0.08   976.174775    38            
iter:  30  01:00:26  +3.37  -0.00  -3038.437717    36            
iter:  31  01:00:30  +3.05  +0.13  -884.811765    3             
iter:  32  01:00:34  +2.60  +0.04  -133.574816    36            
iter:  33  01:00:39  +2.76  -0.19  -727.820542    34            
iter:  34  01:00:43  +2.20  -0.01  -194.850631    32            
iter:  35  01:00:47  +2.21  -0.14  -669.949641    36            
iter:  36  01:00:51  +2.19  +0.01  -541.379276    35            
iter:  37  01:00:55  +2.83  -0.11  -2498.541727    36            
iter:  38  01:00:59  +2.15  +0.09  -355.059686    36            
iter:  39  01:01:03  +2.43  -0.13  -1150.157444    32            
iter:  40  01:01:07  +1.72  -0.03  -232.551853    36            
iter:  41  01:01:12  +1.26  -0.21  -327.861462    36            
iter:  42  01:01:16  +2.03  -0.13  -755.120031    31            
iter:  43  01:01:20  +1.14  +0.04  -203.578382    35            
iter:  44  01:01:24  +2.80  -0.21  -4417.999225    37            
iter:  45  01:01:28  +2.38  +0.07  -1199.381660    41            
iter:  46  01:01:32  +2.60  +0.02  -1675.654719    38            
iter:  47  01:01:36  +1.78  +0.06  -609.145120    38            
iter:  48  01:01:40  +1.56  +0.01  -872.331313    35            
iter:  49  01:01:45  +2.90  +0.01  -1733.881853    33            
iter:  50  01:01:49  +2.57  +0.09  -589.587044    37            
iter:  51  01:01:53  +3.02  +0.02  -2741.018825    35            
iter:  52  01:01:57  +2.89  +0.14  -2404.941554    31            
iter:  53  01:02:01  +1.72  +0.13    23.281904    38            
iter:  54  01:02:05  +3.77  -0.03  -6744.271710    36            
iter:  55  01:02:09  +2.98  +0.06  -3105.576122    38            
iter:  56  01:02:13  +2.17  +0.03  -892.861863    39            
iter:  57  01:02:18  +1.80  +0.00  -510.093450    35            
iter:  58  01:02:22  +1.43  -0.02  -1240.968271    36            
iter:  59  01:02:26  +3.12  -0.02  -1489.406982    36            
iter:  60  01:02:30  +2.93  +0.06  -1517.175231    34            
iter:  61  01:02:34  +2.18  +0.03  -238.612626    34            
iter:  62  01:02:38  +1.92  -0.19     1.576438    37            
iter:  63  01:02:43  +3.17  -0.16  -3281.762757    37            
iter:  64  01:02:47  +2.88  +0.05  -1410.210182    35            
iter:  65  01:02:51  +2.48  +0.11  -454.681022    34            
iter:  66  01:02:55  +2.48  +0.02  -252.653306    34            
iter:  67  01:02:59  +1.73  -0.01   -47.087289    35            
iter:  68  01:03:03  +3.10  -0.35  -4431.775929    35            
iter:  69  01:03:07  +2.05  +0.15  -263.864640    39            
iter:  70  01:03:11  +2.30  +0.02  -635.988259    36            
iter:  71  01:03:16  +2.25  -0.02   161.182224    37            
iter:  72  01:03:20  +1.78  -0.13   159.144598    33            
iter:  73  01:03:24  +2.87  -0.21  -1862.433070    32            
iter:  74  01:03:28  +2.22  +0.06  -237.155014    38            
iter:  75  01:03:32  +2.34  -0.17  -448.474563    36            
iter:  76  01:03:36  +2.10  +0.00     3.190404    32            
iter:  77  01:03:40  +2.07  -0.09  -893.384530    31            
iter:  78  01:03:44  +3.30  -0.03  -4091.053210    36            
iter:  79  01:03:49  +2.22  +0.18  -1158.471461    37            
iter:  80  01:03:53  +1.57  +0.03  -539.915368    36            
iter:  81  01:03:57  +1.98  +0.01    19.895073    32            
iter:  82  01:04:01  +2.72  -0.01  -1427.452046    35            
iter:  83  01:04:05  +3.55  +0.10  -2809.013553    35            
iter:  84  01:04:09  +2.92  +0.05  -1488.128068    36            
iter:  85  01:04:13  +2.19  +0.03  -588.761910    38            
iter:  86  01:04:17  +1.42  -0.13   124.540458    39            
iter:  87  01:04:22  +2.32  -0.15  -1566.818679    34            
iter:  88  01:04:26  +3.61  +0.09  -5740.624415    38            
iter:  89  01:04:30  +2.54  +0.16  -490.819959    38            
iter:  90  01:04:34  +2.31  +0.06   283.640553    36            
iter:  91  01:04:38  +2.20  -0.22   154.543037    34            
iter:  92  01:04:42  +2.12  -0.18  -470.644229    36            
iter:  93  01:04:46  +3.07  -0.07  -4170.069629    35            
iter:  94  01:04:50  +2.26  +0.09    67.095634    32            
iter:  95  01:04:55  +2.32  -0.07   155.326272    36            
iter:  96  01:04:59  +1.87  -0.13    59.799603    36            
iter:  97  01:05:03  +2.24  -0.14  -360.514116    35            
iter:  98  01:05:07  +2.89  +0.01  -1968.504810    38            
iter:  99  01:05:11  +2.35  +0.07  -1096.801071    36            
iter: 100  01:05:15  +2.57  +0.05  -723.189323    36            
iter: 101  01:05:19  +2.29  +0.05     4.262311    35            
iter: 102  01:05:23  +3.32  -0.21  -3647.867308    34            
iter: 103  01:05:28  +2.11  +0.08   303.443525    39            
iter: 104  01:05:32  +2.03  -0.09   243.882359    33            
iter: 105  01:05:36  +2.56  -0.26  -445.600775    37            
iter: 106  01:05:40  +1.78  -0.04   -80.204073    35            
iter: 107  01:05:44  +1.74  -0.32  -159.414205    32            
iter: 108  01:05:48  +2.06  -0.22  -1177.991985    36            
iter: 109  01:05:52  +1.25  +0.02  -476.123718    32            
iter: 110  01:05:56  +1.37  -0.04  -235.006593    37            
iter: 111  01:06:01  +1.40  -0.20  -196.797394    35            
iter: 112  01:06:05  +1.28  -0.22  -390.487590    37            
iter: 113  01:06:09  +1.82  -0.04  -638.411238    34            
iter: 114  01:06:13  +0.47  +0.02  -456.084977    37            
iter: 115  01:06:17  +1.18  -0.15  -550.322865    36            
iter: 116  01:06:21  +0.16  -0.02  -240.952692    33            
iter: 117  01:06:25  -0.32  -0.25  -173.070408    35            
iter: 118  01:06:29  -0.44  -0.32  -331.734978    38            
iter: 119  01:06:34  +2.40  -0.13  -2574.947441    31            
iter: 120  01:06:38  +2.04  +0.11  -781.429539    35            
iter: 121  01:06:42  +0.95  +0.08    27.454789    37            
iter: 122  01:06:46  +0.99  -0.44   -41.880455    33            
iter: 123  01:06:50  +2.62  -0.42  -2835.854360    36            
iter: 124  01:06:54  +2.51  +0.09  -1556.827500    31            
iter: 125  01:06:58  +1.53  +0.04  -429.368491    37            
iter: 126  01:07:02  +0.93  -0.05    80.028442    38            
iter: 127  01:07:07  +2.30  -0.09  -738.135741    35            
iter: 128  01:07:11  +3.14  -0.02  -1863.890551    37            
iter: 129  01:07:15  +2.72  +0.04  -1475.292412    36            
iter: 130  01:07:19  +2.04  +0.07  -643.392416    37            
iter: 131  01:07:23  +1.39  +0.00  -371.290161    34            
iter: 132  01:07:27  +3.05  -0.16  -4445.934513    35            
iter: 133  01:07:31  +3.15  +0.04  -2252.702053    37            
iter: 134  01:07:35  +2.91  +0.11  -1232.751420    35            
iter: 135  01:07:39  +2.08  +0.14   185.256831    33            
iter: 136  01:07:44  +2.73  -0.08  -1874.949303    37            
iter: 137  01:07:48  +3.44  +0.16  -4185.678306    37            
iter: 138  01:07:52  +2.69  +0.12  -2010.389622    36            
iter: 139  01:07:56  +2.02  +0.06  -302.773257    38            
iter: 140  01:08:00  +1.97  -0.03  -552.900804    34            
iter: 141  01:08:04  +3.72  -0.01  -5669.648092    37            
iter: 142  01:08:08  +3.80  +0.06  -5933.863631    36            
iter: 143  01:08:12  +2.82  +0.07  -1729.078373    36            
iter: 144  01:08:16  +2.05  +0.03   217.347665    38            
iter: 145  01:08:21  +1.98  +0.02   172.820093    36            
iter: 146  01:08:25  +2.51  -0.04  -1088.263185    41            
iter: 147  01:08:29  +3.33  +0.05  -2726.898635    33            
iter: 148  01:08:33  +2.84  +0.02  -703.257650    37            
iter: 149  01:08:37  +2.35  +0.00  -341.067215    38            
iter: 150  01:08:41  +2.23  -0.01    34.319779    34            
iter: 151  01:08:45  +3.07  -0.26  -2588.838298    33            
iter: 152  01:08:49  +2.49  +0.13    -8.169029    37            
iter: 153  01:08:54  +2.24  -0.13  -264.587118    34            
iter: 154  01:08:58  +2.20  -0.15  -144.378963    36            
iter: 155  01:09:02  +1.67  -0.16  -382.277689    37            
iter: 156  01:09:06  +2.84  -0.12  -2006.538103    36            
iter: 157  01:09:10  +2.20  +0.07  -865.627532    35            
iter: 158  01:09:14  +1.35  +0.03  -246.909055    37            
iter: 159  01:09:18  +2.16  -0.16  -1020.503443    36            
iter: 160  01:09:22  +1.96  -0.05  -387.382860    32            
iter: 161  01:09:26  +1.80  -0.12  -399.661197    36            
iter: 162  01:09:31  +2.31  -0.13  -1390.286707    37            
iter: 163  01:09:35  +2.24  +0.08  -606.183944    38            
iter: 164  01:09:39  +2.15  -0.08  -232.119688    38            
iter: 165  01:09:43  +1.08  -0.19  -109.193004    35            
iter: 166  01:09:47  +1.31  -0.54  -433.141057    36            
iter: 167  01:09:51  +0.87  -0.08  -492.850254    36            
iter: 168  01:09:55  +1.25  -0.00  -165.790487    31            
iter: 169  01:09:59  +1.19  -0.25  -291.369174    35            
iter: 170  01:10:04  +0.76  -0.13  -246.975095    34            
iter: 171  01:10:08  +0.26  -0.22  -157.088525    35            
iter: 172  01:10:12  +0.30  -0.41  -177.516468    31            
iter: 173  01:10:16  +0.05  -0.29  -166.145077    32            
iter: 174  01:10:20  +1.00  -0.28  -261.214058    36            
iter: 175  01:10:24  +0.97  -0.13  -309.130510    34            
iter: 176  01:10:28  +0.71  -0.10  -251.108453    37            
iter: 177  01:10:32  -0.00  -0.22  -131.012847    31            
iter: 178  01:10:36  -0.75  -0.46  -103.460486    33            
iter: 179  01:10:41  -0.51  -0.57  -137.896794    3             
iter: 180  01:10:45  +1.19  -0.40  -809.710854    33            
iter: 181  01:10:49  +0.19  +0.11  -161.477853    36            
iter: 182  01:10:53  +0.10  -0.29  -116.738872    34            
iter: 183  01:10:57  +0.16  -0.37  -142.495882    33            
iter: 184  01:11:01  -1.13  -0.33   -78.079523    34            
iter: 185  01:11:05  -1.03  -0.78   -84.997793    3             
iter: 186  01:11:09  +1.29  -0.69  -989.654435    31            
iter: 187  01:11:13  +0.63  +0.07   -45.493908    34            
iter: 188  01:11:18  +1.07  -0.51   -43.763389    34            
iter: 189  01:11:22  +1.12  -0.66  -205.812823    31            
iter: 190  01:11:26  +1.18  -0.14  -103.922470    33            
iter: 191  01:11:30  +0.14  -0.49   -96.193100    35            
iter: 192  01:11:34  +0.19  -0.49  -112.272842    31            
iter: 193  01:11:38  +0.01  -0.39   -75.279833    33            
iter: 194  01:11:42  -1.09  -0.74  -117.963085    34            
iter: 195  01:11:46  +1.22  -0.33  -936.885583    35            
iter: 196  01:11:50  +0.46  +0.05   -68.951314    32            
iter: 197  01:11:54  +0.48  -0.61   -65.993386    33            
iter: 198  01:11:59  +0.80  -0.91  -102.528833    34            
iter: 199  01:12:03  +0.14  -0.46   -68.090305    3             
iter: 200  01:12:07  -0.10  -0.98   -79.728685    34            
iter: 201  01:12:11  +0.01  -0.59  -268.527542    34            
iter: 202  01:12:15  -0.47  -0.09   -71.880630    34            
iter: 203  01:12:19  -2.23  -0.79   -77.217751    34            
iter: 204  01:12:23  -1.73  -0.65   -73.009571    33            
iter: 205  01:12:28  -2.29  -0.72   -65.036276    33            
iter: 206  01:12:32  -1.97  -1.18   -96.743236    33            
iter: 207  01:12:36  -1.29  -0.48  -109.670713    32            
iter: 208  01:12:40  -2.51  -0.41   -66.208085    35            
iter: 209  01:12:44  -3.23  -1.00   -65.294741    2             
iter: 210  01:12:48  -3.37  -1.06   -64.549282    33            
iter: 211  01:12:52  -2.85  -1.17   -66.704055    32            
iter: 212  01:12:56  -2.28  -0.94   -64.070425    31            
iter: 213  01:13:00  -2.70  -1.16   -63.079475    34            
iter: 214  01:13:05  -3.64  -1.49   -63.552771    3             
iter: 215  01:13:09  -4.21  -1.32   -62.892176    3             
iter: 216  01:13:13  -3.57  -1.80   -62.907698    34            
iter: 217  01:13:17  -3.62  -1.73   -63.218082    3             
iter: 218  01:13:21  -4.10  -1.42   -62.834922    33            
iter: 219  01:13:25  -4.32  -2.05   -62.926298    3             
iter: 220  01:13:29  -3.81  -1.72   -64.810743    3             
iter: 221  01:13:33  -3.86  -1.06   -62.843848    3             
iter: 222  01:13:37  -4.61  -1.99   -62.853386    2             
iter: 223  01:13:42  -4.30  -1.92   -63.150075    3             
iter: 224  01:13:46  -4.24  -1.45   -62.832756    3             
iter: 225  01:13:50  -4.54  -2.13   -62.847847    2             
iter: 226  01:13:54  -4.87  -1.95   -62.839109    3             
iter: 227  01:13:58  -4.85  -2.09   -62.986652    2             
iter: 228  01:14:02  -4.77  -1.59   -62.875061    3             
iter: 229  01:14:06  -4.32  -1.82   -62.821146    3             
iter: 230  01:14:10  -4.26  -2.26   -62.854348    2             
iter: 231  01:14:14  -4.63  -1.92   -62.818054    3             
iter: 232  01:14:18  -5.22  -2.33   -62.816407    3             
iter: 233  01:14:23  -5.73  -2.43   -62.817989    2             
iter: 234  01:14:27  -4.89  -2.36   -62.824349    2             
iter: 235  01:14:31  -5.36  -2.18   -62.817850    2             
iter: 236  01:14:35  -5.50  -2.34   -62.823530    2             
iter: 237  01:14:39  -5.54  -2.23   -62.813504    2             
iter: 238  01:14:43  -5.85  -2.86   -62.814008    2             
iter: 239  01:14:47  -6.23  -2.86   -62.813236    2             
iter: 240  01:14:51  -6.40  -3.03   -62.813267    2             
iter: 241  01:14:55  -7.40  -3.37   -62.813167    2             
iter: 242  01:14:59  -7.34  -3.55   -62.813208    2             
iter: 243  01:15:04  -7.22  -3.62   -62.813939    2             
iter: 244  01:15:08  -7.41  -2.82   -62.813267    2             
iter: 245  01:15:12  -7.76  -3.35   -62.813204    2             
iter: 246  01:15:16  -8.06  -3.89   -62.813162    2             
iter: 247  01:15:20  -8.38  -3.43   -62.813213    2             
iter: 248  01:15:24  -8.98  -3.85   -62.813190    2             
iter: 249  01:15:28  -8.80  -3.94   -62.813178    2             
iter: 250  01:15:32  -8.92  -3.64   -62.813185    2             
iter: 251  01:15:36  -9.42  -4.22   -62.813194    2             

Converged after 251 iterations.

Dipole moment: (2.096467, 1.210396, -0.110176) |e|*Ang

Energy contributions relative to reference atoms: (reference = -95516.406125)

Kinetic:        +53.252539
Potential:      -25.399893
External:        +0.000000
XC:             -90.193296
Entropy (-ST):   -0.203288
Local:           -0.370899
--------------------------
Free energy:    -62.914838
Extrapolated:   -62.813194

Fermi level: 2.21066

Warning: Showing only first 2 kpts
 Kpt  Band  Eigenvalues  Occupancy
  0    24      3.61309    0.00000
  0    25      4.69524    0.00000
  0    26      5.68426    0.00000
  0    27      6.10975    0.00000

  1    24      3.57237    0.00000
  1    25      4.65528    0.00000
  1    26      5.64459    0.00000
  1    27      6.22275    0.00000



Forces in eV/Ang:
  0 Al    0.00000    0.00000   -0.05745
  1 Al    0.00000    0.00000    0.08116
  2 Al   -0.00000   -0.00000   -0.03356
  3 Al   -0.00000    0.00000    0.01227
  4 Al    0.00000    0.00000    0.01726
  5 Al    0.00000    0.00000   -0.00873
  6 Al    0.00000    0.00000    0.00484
  7 Al    0.00000   -0.00000    0.00234
  8 Al    0.00000    0.00000   -0.02312
  9 Al   -0.00000    0.00000    0.02230
 10 Al    0.00000    0.00000    0.03247
 11 Al    0.00000    0.00000   -0.00187
 12 Al    0.00000    0.00000   -0.15017
 13 Al   -0.00000    0.00000    0.01635
 14 C    -0.00000    0.00000   -4.89301
 15 O     0.00000    0.00000    4.97784

System changes: positions 

Initializing position-dependent things.

Density initialized from wave functions
                    
                    
                    
                    
       O            
                    
       C            
                    
       Al           
                    
        Al          
                    
                    
                    
           Al       
                    
                    
       Al           
                    
        Al          
                    
                    
           Al       
                    
                    
       Al           
                    
        Al          
                    
                    
                    
           Al       
                    
                    
       Al           
                    
        Al          
                    
                    
           Al       
                    
                    
                    
       Al           
                    
        Al          
                    
                    
                    
                    

Positions:
   0 Al     0.000000    1.650788   15.000000
   1 Al     0.000000    0.000000   17.334567
   2 Al     1.429625    0.825394   19.669135
   3 Al     0.000000    1.650788   22.003702
   4 Al     0.000000    0.000000   24.338269
   5 Al     1.429625    0.825394   26.672837
   6 Al     0.000000    1.650788   29.007404
   7 Al     0.000000    0.000000   31.341972
   8 Al     1.429625    0.825394   33.676539
   9 Al     0.000000    1.650788   36.011106
  10 Al     0.000000    0.000000   38.345674
  11 Al     1.429625    0.825394   40.680241
  12 Al     0.000000    1.650788   43.014808
  13 Al     0.000000    0.000000   45.349376
  14 C     -0.000000    0.000000   47.310057
  15 O      0.000000    0.000000   48.517376

Unit cell:
           periodic     x           y           z      points  spacing
  1. axis:    yes    2.859249    0.000000    0.000000    14     0.1769
  2. axis:    yes    1.429625    2.476183    0.000000    14     0.1769
  3. axis:    no     0.000000    0.000000   60.349376   336     0.1796

  Lengths:   2.859249   2.859249  60.349376
  Angles:   90.000000  90.000000  60.000000

Effective grid spacing dv^(1/3) = 0.1865

                     log10-error:    total        iterations:
           time      wfs    density  energy       fermi  poisson
iter:   1  01:15:42  +0.84   +inf   -64.678020    32            
iter:   2  01:15:47  -0.59  -1.43  -140.803652    33            
iter:   3  01:15:51  -0.56  -0.27  -129.947294    3             
iter:   4  01:15:55  -1.65  -0.28   -93.644219    4             
iter:   5  01:15:59  -0.68  -0.46  -126.680516    35            
iter:   6  01:16:03  -1.31  -0.30   -79.720405    36            
iter:   7  01:16:07  -1.85  -0.64   -70.645396    33            
iter:   8  01:16:11  -2.08  -0.80   -71.088712    3             
iter:   9  01:16:15  -2.27  -0.77   -77.739069    34            
iter:  10  01:16:19  -2.74  -0.63   -66.378318    33            
iter:  11  01:16:24  -2.34  -1.03   -65.772683    35            
iter:  12  01:16:28  -2.82  -1.07   -72.020934    32            
iter:  13  01:16:32  -2.67  -0.77   -63.734037    32            
iter:  14  01:16:36  -2.99  -1.49   -67.229882    3             
iter:  15  01:16:40  -1.48  -0.92   -77.778143    34            
iter:  16  01:16:44  -2.67  -0.63   -64.619580    31            
iter:  17  01:16:48  -2.54  -1.08   -70.811611    34            
iter:  18  01:16:52  -2.61  -0.83   -64.639421    33            
iter:  19  01:16:56  -2.69  -1.07   -69.653414    3             
iter:  20  01:17:00  -2.57  -0.84   -66.929494    3             
iter:  21  01:17:05  -2.53  -0.88   -63.348170    3             
iter:  22  01:17:09  -2.86  -1.49   -63.628184    34            
iter:  23  01:17:13  -2.75  -1.34   -64.539065    3             
iter:  24  01:17:17  -3.26  -1.11   -65.202239    34            
iter:  25  01:17:21  -2.76  -1.04   -65.416621    33            
iter:  26  01:17:25  -2.69  -1.01   -65.155887    3             
iter:  27  01:17:29  -2.73  -1.02   -63.115082    3             
iter:  28  01:17:33  -3.15  -1.55   -63.931971    3             
iter:  29  01:17:37  -3.60  -1.21   -63.004695    3             
iter:  30  01:17:41  -3.55  -1.69   -63.127141    3             
iter:  31  01:17:46  -4.16  -1.49   -62.973865    3             
iter:  32  01:17:50  -3.92  -1.72   -63.170202    3             
iter:  33  01:17:54  -4.57  -1.46   -62.935312    3             
iter:  34  01:17:58  -3.45  -1.80   -63.020144    3             
iter:  35  01:18:02  -3.96  -1.63   -63.248035    3             
iter:  36  01:18:06  -3.94  -1.42   -63.939921    3             
iter:  37  01:18:10  -3.52  -1.18   -63.185303    3             
iter:  38  01:18:14  -3.55  -1.47   -62.956446    3             
iter:  39  01:18:18  -3.85  -1.79   -62.966132    3             
iter:  40  01:18:23  -3.97  -1.72   -63.051003    3             
iter:  41  01:18:27  -3.36  -1.59   -65.974491    33            
iter:  42  01:18:31  -3.48  -0.98   -63.157232    32            
iter:  43  01:18:35  -4.35  -1.46   -62.937949    3             
iter:  44  01:18:39  -3.78  -1.76   -63.330803    3             
iter:  45  01:18:43  -3.94  -1.39   -62.977819    3             
iter:  46  01:18:47  -4.58  -1.70   -62.924829    3             
iter:  47  01:18:51  -3.39  -1.85   -63.012934    2             
iter:  48  01:18:55  -3.65  -1.64   -63.184839    3             
iter:  49  01:19:00  -4.27  -1.50   -63.022417    3             
iter:  50  01:19:04  -3.72  -1.61   -62.880623    3             
iter:  51  01:19:08  -4.23  -2.20   -62.946840    3             
iter:  52  01:19:12  -4.71  -1.80   -62.873296    3             
iter:  53  01:19:16  -5.22  -2.47   -62.871401    2             
iter:  54  01:19:20  -5.87  -2.65   -62.872334    2             
iter:  55  01:19:24  -5.52  -2.55   -62.886695    2             
iter:  56  01:19:28  -5.66  -2.13   -62.878767    3             
iter:  57  01:19:32  -6.15  -2.23   -62.871677    2             
iter:  58  01:19:36  -6.38  -2.65   -62.870736    2             
iter:  59  01:19:41  -6.67  -2.89   -62.870928    2             
iter:  60  01:19:45  -7.06  -2.84   -62.871067    2             
iter:  61  01:19:49  -6.21  -2.75   -62.871151    2             
iter:  62  01:19:53  -5.49  -2.74   -62.939441    2             
iter:  63  01:19:57  -5.49  -1.80   -62.870969    2             
iter:  64  01:20:01  -6.15  -2.85   -62.871223    2             
iter:  65  01:20:05  -6.61  -2.80   -62.870957    2             
iter:  66  01:20:09  -7.09  -2.85   -62.870614    2             
iter:  67  01:20:13  -7.24  -3.15   -62.870520    2             
iter:  68  01:20:17  -6.21  -3.37   -62.883778    2             
iter:  69  01:20:22  -6.27  -2.17   -62.870670    2             
iter:  70  01:20:26  -6.98  -3.09   -62.870582    2             
iter:  71  01:20:30  -7.08  -3.35   -62.870818    2             
iter:  72  01:20:34  -6.66  -2.96   -62.871398    2             
iter:  73  01:20:38  -6.87  -2.70   -62.870519    2             
iter:  74  01:20:42  -6.79  -3.49   -62.872082    2             
iter:  75  01:20:46  -6.96  -2.72   -62.870518    2             
iter:  76  01:20:50  -7.80  -3.52   -62.870529    2             
iter:  77  01:20:54  -7.85  -3.33   -62.870539    2             
iter:  78  01:20:58  -7.27  -3.41   -62.871136    2             
iter:  79  01:21:02  -7.28  -2.86   -62.870531    2             
iter:  80  01:21:07  -6.72  -3.36   -62.870592    2             
iter:  81  01:21:11  -7.45  -3.62   -62.870523    2             
iter:  82  01:21:15  -7.55  -3.37   -62.870567    2             
iter:  83  01:21:19  -8.11  -3.63   -62.870555    2             
iter:  84  01:21:23  -8.13  -3.62   -62.870578    2             
iter:  85  01:21:27  -8.11  -3.18   -62.870549    2             
iter:  86  01:21:31  -8.53  -4.02   -62.870532    2             

Converged after 86 iterations.

Dipole moment: (2.094721, 1.209388, -0.186665) |e|*Ang

Energy contributions relative to reference atoms: (reference = -95516.406125)

Kinetic:        +44.958250
Potential:      -19.018298
External:        +0.000000
XC:             -88.372753
Entropy (-ST):   -0.204576
Local:           -0.335443
--------------------------
Free energy:    -62.972820
Extrapolated:   -62.870532

Fermi level: 2.01860

Warning: Showing only first 2 kpts
 Kpt  Band  Eigenvalues  Occupancy
  0    24      3.45229    0.00000
  0    25      4.53689    0.00000
  0    26      5.53184    0.00000
  0    27      5.69224    0.00000

  1    24      3.41191    0.00000
  1    25      4.49746    0.00000
  1    26      5.49616    0.00000
  1    27      5.79494    0.00000



Forces in eV/Ang:
  0 Al    0.00000    0.00000   -0.06068
  1 Al    0.00000    0.00000    0.08017
  2 Al    0.00000    0.00000   -0.03308
  3 Al   -0.00000    0.00000    0.01213
  4 Al    0.00000    0.00000    0.01675
  5 Al   -0.00000    0.00000   -0.00784
  6 Al   -0.00000    0.00000    0.00489
  7 Al    0.00000    0.00000    0.00033
  8 Al   -0.00000    0.00000   -0.02273
  9 Al    0.00000    0.00000    0.02638
 10 Al    0.00000   -0.00000    0.03160
 11 Al    0.00000    0.00000   -0.00982
 12 Al   -0.00000   -0.00000   -0.12630
 13 Al    0.00000    0.00000   -0.22136
 14 C    -0.00000    0.00000    3.04434
 15 O    -0.00000    0.00000   -2.73592

System changes: positions 

Initializing position-dependent things.

Density initialized from wave functions
                    
                    
                    
                    
       O            
                    
       C            
                    
       Al           
                    
        Al          
                    
                    
                    
           Al       
                    
                    
       Al           
                    
        Al          
                    
                    
           Al       
                    
                    
       Al           
                    
        Al          
                    
                    
                    
           Al       
                    
                    
       Al           
                    
        Al          
                    
                    
           Al       
                    
                    
                    
       Al           
                    
        Al          
                    
                    
                    
                    

Positions:
   0 Al     0.000000    1.650788   15.000000
   1 Al     0.000000    0.000000   17.334567
   2 Al     1.429625    0.825394   19.669135
   3 Al     0.000000    1.650788   22.003702
   4 Al     0.000000    0.000000   24.338269
   5 Al     1.429625    0.825394   26.672837
   6 Al     0.000000    1.650788   29.007404
   7 Al     0.000000    0.000000   31.341972
   8 Al     1.429625    0.825394   33.676539
   9 Al     0.000000    1.650788   36.011106
  10 Al     0.000000    0.000000   38.345674
  11 Al     1.429625    0.825394   40.680241
  12 Al     0.000000    1.650788   43.014808
  13 Al     0.000000    0.000000   45.349376
  14 C     -0.000000   -0.000000   47.326164
  15 O     -0.000000    0.000000   48.504245

Unit cell:
           periodic     x           y           z      points  spacing
  1. axis:    yes    2.859249    0.000000    0.000000    14     0.1769
  2. axis:    yes    1.429625    2.476183    0.000000    14     0.1769
  3. axis:    no     0.000000    0.000000   60.349376   336     0.1796

  Lengths:   2.859249   2.859249  60.349376
  Angles:   90.000000  90.000000  60.000000

Effective grid spacing dv^(1/3) = 0.1865

                     log10-error:    total        iterations:
           time      wfs    density  energy       fermi  poisson
iter:   1  01:21:37  -0.08   +inf   -63.131250    3             
iter:   2  01:21:41  -1.58  -1.81   -72.339389    3             
iter:   3  01:21:45  -2.48  -0.73   -67.384045    3             
iter:   4  01:21:49  -2.88  -0.87   -66.876116    34            
iter:   5  01:21:54  -2.95  -0.92   -64.427666    35            
iter:   6  01:21:58  -2.30  -1.19   -63.980593    30            
iter:   7  01:22:02  -2.96  -1.28   -63.424933    3             
iter:   8  01:22:06  -3.42  -1.35   -64.204290    2             
iter:   9  01:22:10  -3.31  -1.15   -66.392565    3             
iter:  10  01:22:14  -3.60  -0.93   -63.659226    31            
iter:  11  01:22:18  -3.68  -1.31   -63.096098    33            
iter:  12  01:22:22  -4.06  -1.62   -63.042128    3             
iter:  13  01:22:26  -3.76  -1.66   -63.114735    2             
iter:  14  01:22:30  -3.70  -1.60   -63.281826    3             
iter:  15  01:22:34  -2.99  -1.43   -69.094123    3             
iter:  16  01:22:39  -3.13  -0.81   -63.436661    3             
iter:  17  01:22:43  -3.86  -1.35   -62.996140    34            
iter:  18  01:22:47  -4.00  -1.82   -62.979468    3             
iter:  19  01:22:51  -4.58  -1.91   -62.960702    3             
iter:  20  01:22:55  -4.43  -1.90   -62.965991    2             
iter:  21  01:22:59  -2.74  -1.91   -71.065216    2             
iter:  22  01:23:03  -2.96  -0.75   -63.255759    3             
iter:  23  01:23:07  -3.95  -1.46   -63.031421    3             
iter:  24  01:23:11  -4.34  -1.73   -63.241224    3             
iter:  25  01:23:16  -4.30  -1.44   -62.986276    2             
iter:  26  01:23:20  -4.85  -1.85   -62.954844    2             
iter:  27  01:23:24  -3.50  -1.97   -62.987060    2             
iter:  28  01:23:28  -3.38  -1.83   -68.053080    3             
iter:  29  01:23:32  -3.38  -0.87   -63.314851    34            
iter:  30  01:23:36  -4.17  -1.42   -62.943570    3             
iter:  31  01:23:40  -5.03  -2.01   -62.935250    2             
iter:  32  01:23:44  -5.59  -2.14   -62.928357    2             
iter:  33  01:23:48  -5.98  -2.33   -62.929508    2             
iter:  34  01:23:53  -5.08  -2.32   -62.966930    3             
iter:  35  01:23:57  -4.51  -1.90   -63.083983    3             
iter:  36  01:24:01  -4.45  -1.61   -62.985498    3             
iter:  37  01:24:05  -5.10  -1.78   -62.927150    2             
iter:  38  01:24:09  -5.96  -2.31   -62.927047    2             
iter:  39  01:24:13  -6.57  -2.35   -62.925339    2             
iter:  40  01:24:17  -5.96  -2.41   -62.929973    2             
iter:  41  01:24:21  -5.21  -2.22   -62.963392    3             
iter:  42  01:24:25  -4.63  -1.94   -63.099473    3             
iter:  43  01:24:30  -4.90  -1.57   -62.924556    2             
iter:  44  01:24:34  -5.74  -2.45   -62.925881    2             
iter:  45  01:24:38  -6.36  -2.35   -62.923066    2             
iter:  46  01:24:42  -6.60  -2.54   -62.922299    2             
iter:  47  01:24:46  -6.08  -2.64   -62.923402    2             
iter:  48  01:24:50  -6.22  -2.47   -62.921776    2             
iter:  49  01:24:54  -5.58  -2.66   -62.928449    3             
iter:  50  01:24:58  -5.89  -2.23   -62.920396    2             
iter:  51  01:25:02  -6.80  -3.00   -62.920233    2             
iter:  52  01:25:06  -7.42  -3.45   -62.920224    2             
iter:  53  01:25:11  -7.88  -3.60   -62.920235    2             
iter:  54  01:25:15  -8.28  -3.59   -62.920199    2             
iter:  55  01:25:19  -7.70  -3.68   -62.920285    2             
iter:  56  01:25:23  -7.64  -3.52   -62.920283    2             
iter:  57  01:25:27  -7.69  -3.29   -62.920188    2             
iter:  58  01:25:31  -7.73  -3.28   -62.920207    2             
iter:  59  01:25:35  -8.04  -3.28   -62.920206    2             
iter:  60  01:25:39  -8.36  -3.35   -62.920195    2             
iter:  61  01:25:43  -8.89  -4.14   -62.920191    2             

Converged after 61 iterations.

Dipole moment: (2.095342, 1.209746, -0.160065) |e|*Ang

Energy contributions relative to reference atoms: (reference = -95516.406125)

Kinetic:        +47.565637
Potential:      -21.052211
External:        +0.000000
XC:             -88.985113
Entropy (-ST):   -0.204140
Local:           -0.346434
--------------------------
Free energy:    -63.022261
Extrapolated:   -62.920191

Fermi level: 2.08465

Warning: Showing only first 2 kpts
 Kpt  Band  Eigenvalues  Occupancy
  0    24      3.50652    0.00000
  0    25      4.59051    0.00000
  0    26      5.58527    0.00000
  0    27      5.83610    0.00000

  1    24      3.46600    0.00000
  1    25      4.55086    0.00000
  1    26      5.54726    0.00000
  1    27      5.94302    0.00000



Forces in eV/Ang:
  0 Al   -0.00000    0.00000   -0.06082
  1 Al    0.00000    0.00000    0.07979
  2 Al    0.00000    0.00000   -0.03404
  3 Al   -0.00000    0.00000    0.01222
  4 Al    0.00000    0.00000    0.01777
  5 Al   -0.00000    0.00000   -0.00757
  6 Al    0.00000    0.00000    0.00461
  7 Al    0.00000    0.00000    0.00010
  8 Al    0.00000    0.00000   -0.02362
  9 Al   -0.00000    0.00000    0.02492
 10 Al   -0.00000   -0.00000    0.03300
 11 Al   -0.00000    0.00000   -0.00548
 12 Al    0.00000   -0.00000   -0.13387
 13 Al    0.00000   -0.00000   -0.10257
 14 C    -0.00000    0.00000    0.50229
 15 O     0.00000    0.00000   -0.29848

System changes: positions 

Initializing position-dependent things.

Density initialized from wave functions
                    
                    
                    
                    
       O            
                    
       C            
                    
       Al           
                    
        Al          
                    
                    
                    
           Al       
                    
                    
       Al           
                    
        Al          
                    
                    
           Al       
                    
                    
       Al           
                    
        Al          
                    
                    
                    
           Al       
                    
                    
       Al           
                    
        Al          
                    
                    
           Al       
                    
                    
                    
       Al           
                    
        Al          
                    
                    
                    
                    

Positions:
   0 Al     0.000000    1.650788   15.000000
   1 Al     0.000000    0.000000   17.334567
   2 Al     1.429625    0.825394   19.669135
   3 Al     0.000000    1.650788   22.003702
   4 Al     0.000000    0.000000   24.338269
   5 Al     1.429625    0.825394   26.672837
   6 Al     0.000000    1.650788   29.007404
   7 Al     0.000000    0.000000   31.341972
   8 Al     1.429625    0.825394   33.676539
   9 Al     0.000000    1.650788   36.011106
  10 Al     0.000000    0.000000   38.345674
  11 Al     1.429625    0.825394   40.680241
  12 Al     0.000000    1.650788   43.014808
  13 Al     0.000000    0.000000   45.349376
  14 C     -0.000000   -0.000000   47.330128
  15 O      0.000000   -0.000000   48.503451

Unit cell:
           periodic     x           y           z      points  spacing
  1. axis:    yes    2.859249    0.000000    0.000000    14     0.1769
  2. axis:    yes    1.429625    2.476183    0.000000    14     0.1769
  3. axis:    no     0.000000    0.000000   60.349376   336     0.1796

  Lengths:   2.859249   2.859249  60.349376
  Angles:   90.000000  90.000000  60.000000

Effective grid spacing dv^(1/3) = 0.1865

                     log10-error:    total        iterations:
           time      wfs    density  energy       fermi  poisson
iter:   1  01:25:49  -1.88   +inf   -62.956859    3             
iter:   2  01:25:53  -2.54  -1.95   -83.448935    33            
iter:   3  01:25:57  -3.07  -0.55   -63.241109    31            
iter:   4  01:26:02  -3.75  -1.46   -63.197697    33            
iter:   5  01:26:06  -4.28  -1.50   -62.930760    3             
iter:   6  01:26:10  -4.59  -2.24   -62.933979    2             
iter:   7  01:26:14  -4.83  -2.22   -62.928399    3             
iter:   8  01:26:18  -5.03  -2.27   -62.938679    3             
iter:   9  01:26:22  -5.09  -2.13   -62.976121    3             
iter:  10  01:26:26  -4.65  -1.85   -62.955547    3             
iter:  11  01:26:30  -5.14  -2.00   -62.926220    3             
iter:  12  01:26:34  -5.65  -2.37   -62.922947    2             
iter:  13  01:26:38  -5.50  -2.64   -62.930249    2             
iter:  14  01:26:42  -5.39  -2.24   -62.928325    2             
iter:  15  01:26:47  -5.04  -2.35   -62.940591    3             
iter:  16  01:26:51  -5.31  -2.07   -62.926689    2             
iter:  17  01:26:55  -5.18  -2.34   -62.930085    2             
iter:  18  01:26:59  -5.66  -2.28   -62.923343    2             
iter:  19  01:27:03  -5.60  -2.65   -62.924203    3             
iter:  20  01:27:07  -5.79  -2.45   -62.922292    2             
iter:  21  01:27:11  -5.91  -2.73   -62.931763    2             
iter:  22  01:27:15  -5.98  -2.23   -62.922184    2             
iter:  23  01:27:20  -5.92  -2.85   -62.924448    2             
iter:  24  01:27:24  -5.70  -2.45   -62.923343    2             
iter:  25  01:27:28  -5.68  -2.59   -62.925887    2             
iter:  26  01:27:32  -6.15  -2.43   -62.922050    2             
iter:  27  01:27:36  -5.76  -2.82   -62.931682    3             
iter:  28  01:27:40  -5.83  -2.20   -62.922298    2             
iter:  29  01:27:44  -6.20  -2.75   -62.922380    2             
iter:  30  01:27:49  -6.38  -2.79   -62.923768    2             
iter:  31  01:27:53  -6.35  -2.52   -62.921691    2             
iter:  32  01:27:57  -6.36  -3.00   -62.923483    2             
iter:  33  01:28:01  -5.97  -2.60   -62.925854    2             
iter:  34  01:28:05  -5.83  -2.42   -62.921896    2             
iter:  35  01:28:09  -6.73  -2.87   -62.921642    2             
iter:  36  01:28:13  -5.85  -2.99   -62.921467    2             
iter:  37  01:28:17  -6.38  -3.29   -62.922069    2             
iter:  38  01:28:21  -6.40  -2.83   -62.921788    2             
iter:  39  01:28:25  -6.66  -2.84   -62.922098    2             
iter:  40  01:28:30  -6.76  -2.78   -62.922862    2             
iter:  41  01:28:34  -7.23  -2.65   -62.921406    2             
iter:  42  01:28:38  -7.36  -3.38   -62.921575    2             
iter:  43  01:28:42  -7.77  -3.30   -62.921651    2             
iter:  44  01:28:46  -7.49  -3.12   -62.921488    2             
iter:  45  01:28:50  -7.57  -3.19   -62.921721    2             
iter:  46  01:28:54  -7.17  -3.02   -62.921484    2             
iter:  47  01:28:58  -7.26  -3.01   -62.921399    2             
iter:  48  01:29:02  -7.49  -3.51   -62.921577    2             
iter:  49  01:29:07  -7.77  -3.14   -62.921436    2             
iter:  50  01:29:11  -7.52  -3.21   -62.921458    2             
iter:  51  01:29:15  -8.17  -3.40   -62.921430    2             
iter:  52  01:29:19  -8.15  -3.55   -62.921406    2             
iter:  53  01:29:23  -8.14  -3.35   -62.921465    2             
iter:  54  01:29:27  -7.57  -3.47   -62.921390    2             
iter:  55  01:29:31  -7.26  -3.17   -62.921599    2             
iter:  56  01:29:35  -7.60  -3.12   -62.921504    2             
iter:  57  01:29:39  -8.13  -3.26   -62.921406    2             
iter:  58  01:29:43  -8.02  -3.70   -62.921402    2             
iter:  59  01:29:48  -8.06  -3.77   -62.921374    2             
iter:  60  01:29:52  -7.61  -3.61   -62.921357    2             
iter:  61  01:29:56  -7.84  -3.29   -62.921403    2             
iter:  62  01:30:00  -8.36  -3.71   -62.921359    2             
iter:  63  01:30:04  -8.55  -3.46   -62.921360    2             
iter:  64  01:30:08  -8.84  -4.09   -62.921380    2             

Converged after 64 iterations.

Dipole moment: (2.095581, 1.209884, -0.155787) |e|*Ang

Energy contributions relative to reference atoms: (reference = -95516.406125)

Kinetic:        +47.997289
Potential:      -21.386872
External:        +0.000000
XC:             -89.081909
Entropy (-ST):   -0.204039
Local:           -0.347869
--------------------------
Free energy:    -63.023400
Extrapolated:   -62.921380

Fermi level: 2.09635

Warning: Showing only first 2 kpts
 Kpt  Band  Eigenvalues  Occupancy
  0    24      3.51527    0.00000
  0    25      4.59901    0.00000
  0    26      5.59330    0.00000
  0    27      5.86410    0.00000

  1    24      3.47473    0.00000
  1    25      4.55932    0.00000
  1    26      5.55497    0.00000
  1    27      5.97166    0.00000



Forces in eV/Ang:
  0 Al   -0.00000    0.00000   -0.05925
  1 Al   -0.00000    0.00000    0.08078
  2 Al    0.00000    0.00000   -0.03260
  3 Al    0.00000    0.00000    0.01218
  4 Al   -0.00000   -0.00000    0.01623
  5 Al    0.00000    0.00000   -0.00905
  6 Al    0.00000    0.00000    0.00442
  7 Al    0.00000   -0.00000    0.00137
  8 Al    0.00000    0.00000   -0.02224
  9 Al   -0.00000    0.00000    0.02542
 10 Al    0.00000   -0.00000    0.03300
 11 Al   -0.00000    0.00000   -0.00528
 12 Al   -0.00000   -0.00000   -0.13553
 13 Al    0.00000    0.00000   -0.07566
 14 C     0.00000    0.00000    0.03364
 15 O     0.00000    0.00000    0.13416

System changes: positions 

Initializing position-dependent things.

Density initialized from wave functions
                    
                    
                    
                    
       O            
                    
       C            
                    
       Al           
                    
        Al          
                    
                    
                    
           Al       
                    
                    
       Al           
                    
        Al          
                    
                    
           Al       
                    
                    
       Al           
                    
        Al          
                    
                    
                    
           Al       
                    
                    
       Al           
                    
        Al          
                    
                    
           Al       
                    
                    
                    
       Al           
                    
        Al          
                    
                    
                    
                    

Positions:
   0 Al     0.000000    1.650788   15.000000
   1 Al     0.000000    0.000000   17.334567
   2 Al     1.429625    0.825394   19.669135
   3 Al     0.000000    1.650788   22.003702
   4 Al     0.000000    0.000000   24.338269
   5 Al     1.429625    0.825394   26.672837
   6 Al     0.000000    1.650788   29.007404
   7 Al     0.000000    0.000000   31.341972
   8 Al     1.429625    0.825394   33.676539
   9 Al     0.000000    1.650788   36.011106
  10 Al     0.000000    0.000000   38.345674
  11 Al     1.429625    0.825394   40.680241
  12 Al     0.000000    1.650788   43.014808
  13 Al     0.000000    0.000000   45.349376
  14 C     -0.000000   -0.000000   47.331475
  15 O      0.000000   -0.000000   48.504849

Unit cell:
           periodic     x           y           z      points  spacing
  1. axis:    yes    2.859249    0.000000    0.000000    14     0.1769
  2. axis:    yes    1.429625    2.476183    0.000000    14     0.1769
  3. axis:    no     0.000000    0.000000   60.349376   336     0.1796

  Lengths:   2.859249   2.859249  60.349376
  Angles:   90.000000  90.000000  60.000000

Effective grid spacing dv^(1/3) = 0.1865

                     log10-error:    total        iterations:
           time      wfs    density  energy       fermi  poisson
iter:   1  01:30:14  -2.19   +inf   -63.142421    3             
iter:   2  01:30:18  -1.06  -1.53  -244.534275    35            
iter:   3  01:30:22  -1.93  -0.07   -68.663368    35            
iter:   4  01:30:26  -1.03  -0.86   -62.897667    33            
iter:   5  01:30:30  -1.19  -1.85   -62.943051    2             
iter:   6  01:30:34  -1.96  -1.91   -63.129078    3             
iter:   7  01:30:39  -2.65  -1.57   -62.971852    3             
iter:   8  01:30:43  -3.45  -1.91   -62.953656    3             
iter:   9  01:30:47  -3.29  -1.99   -64.405389    3             
iter:  10  01:30:51  -4.03  -1.12   -62.923621    3             
iter:  11  01:30:55  -4.99  -2.57   -62.923089    2             
iter:  12  01:30:59  -5.55  -2.62   -62.923295    2             
iter:  13  01:31:03  -5.82  -2.61   -62.933891    2             
iter:  14  01:31:07  -5.83  -2.18   -62.922036    3             
iter:  15  01:31:11  -5.41  -2.90   -62.945524    3             
iter:  16  01:31:15  -5.71  -2.01   -62.922319    3             
iter:  17  01:31:19  -6.11  -2.91   -62.925453    2             
iter:  18  01:31:23  -6.13  -2.42   -62.922100    2             
iter:  19  01:31:28  -5.91  -2.91   -62.929228    3             
iter:  20  01:31:32  -6.20  -2.27   -62.922257    2             
iter:  21  01:31:36  -5.79  -2.86   -62.924289    2             
iter:  22  01:31:40  -6.18  -2.56   -62.921748    2             
iter:  23  01:31:44  -6.20  -3.05   -62.924720    2             
iter:  24  01:31:48  -6.17  -2.42   -62.921982    2             
iter:  25  01:31:52  -6.22  -2.97   -62.927327    2             
iter:  26  01:31:56  -6.42  -2.35   -62.921655    2             
iter:  27  01:32:00  -6.44  -3.08   -62.921595    2             
iter:  28  01:32:04  -6.76  -3.15   -62.921953    2             
iter:  29  01:32:08  -6.60  -3.07   -62.924093    2             
iter:  30  01:32:13  -6.73  -2.54   -62.921647    2             
iter:  31  01:32:17  -6.54  -3.14   -62.923141    2             
iter:  32  01:32:21  -6.63  -2.59   -62.921759    2             
iter:  33  01:32:25  -7.16  -3.16   -62.921699    2             
iter:  34  01:32:29  -7.30  -3.38   -62.921687    2             
iter:  35  01:32:33  -7.13  -3.17   -62.921743    2             
iter:  36  01:32:37  -7.49  -2.95   -62.921655    2             
iter:  37  01:32:41  -7.24  -3.47   -62.922066    2             
iter:  38  01:32:45  -7.36  -2.92   -62.921634    2             
iter:  39  01:32:49  -7.63  -3.22   -62.921558    2             
iter:  40  01:32:54  -7.52  -3.65   -62.921623    2             
iter:  41  01:32:58  -7.63  -3.24   -62.921855    2             
iter:  42  01:33:02  -7.85  -3.12   -62.921564    2             
iter:  43  01:33:06  -7.61  -3.78   -62.921617    2             
iter:  44  01:33:10  -7.78  -3.26   -62.921668    2             
iter:  45  01:33:14  -8.05  -3.31   -62.921607    2             
iter:  46  01:33:18  -7.85  -3.71   -62.921658    2             
iter:  47  01:33:22  -7.93  -3.36   -62.921576    2             
iter:  48  01:33:26  -8.14  -3.21   -62.921582    2             
iter:  49  01:33:30  -8.19  -3.81   -62.921616    2             
iter:  50  01:33:35  -8.11  -3.55   -62.921588    2             
iter:  51  01:33:39  -8.32  -3.45   -62.921569    2             
iter:  52  01:33:43  -8.12  -3.81   -62.921566    2             
iter:  53  01:33:47  -8.18  -3.47   -62.921709    2             
iter:  54  01:33:51  -8.26  -3.39   -62.921594    2             
iter:  55  01:33:55  -8.36  -3.75   -62.921573    2             
iter:  56  01:33:59  -8.50  -3.81   -62.921595    2             
iter:  57  01:34:03  -8.67  -3.69   -62.921582    2             
iter:  58  01:34:07  -8.63  -3.90   -62.921611    2             
iter:  59  01:34:11  -8.39  -3.68   -62.921544    2             
iter:  60  01:34:16  -8.38  -3.62   -62.921574    2             
iter:  61  01:34:20  -8.74  -3.73   -62.921589    2             
iter:  62  01:34:24  -8.85  -3.94   -62.921579    2             
iter:  63  01:34:28  -9.03  -3.95   -62.921584    2             
iter:  64  01:34:32  -8.97  -4.01   -62.921565    2             

Converged after 64 iterations.

Dipole moment: (2.095575, 1.209881, -0.155278) |e|*Ang

Energy contributions relative to reference atoms: (reference = -95516.406125)

Kinetic:        +47.948821
Potential:      -21.349770
External:        +0.000000
XC:             -89.071363
Entropy (-ST):   -0.204121
Local:           -0.347193
--------------------------
Free energy:    -63.023626
Extrapolated:   -62.921565

Fermi level: 2.09664

Warning: Showing only first 2 kpts
 Kpt  Band  Eigenvalues  Occupancy
  0    24      3.51515    0.00000
  0    25      4.59890    0.00000
  0    26      5.59330    0.00000
  0    27      5.86246    0.00000

  1    24      3.47459    0.00000
  1    25      4.55920    0.00000
  1    26      5.55495    0.00000
  1    27      5.96999    0.00000



Forces in eV/Ang:
  0 Al    0.00000    0.00000   -0.05949
  1 Al    0.00000    0.00000    0.08051
  2 Al    0.00000   -0.00000   -0.03286
  3 Al    0.00000   -0.00000    0.01232
  4 Al    0.00000   -0.00000    0.01706
  5 Al   -0.00000    0.00000   -0.00829
  6 Al    0.00000    0.00000    0.00437
  7 Al    0.00000    0.00000    0.00022
  8 Al    0.00000    0.00000   -0.02449
  9 Al   -0.00000    0.00000    0.02249
 10 Al    0.00000    0.00000    0.03106
 11 Al    0.00000    0.00000   -0.00616
 12 Al   -0.00000    0.00000   -0.13658
 13 Al   -0.00000   -0.00000   -0.06016
 14 C    -0.00000    0.00000    0.02946
 15 O    -0.00000    0.00000    0.11105

System changes: positions 

Initializing position-dependent things.

Density initialized from wave functions
                    
                    
                    
                    
       O            
                    
       C            
                    
       Al           
                    
        Al          
                    
                    
                    
           Al       
                    
                    
       Al           
                    
        Al          
                    
                    
           Al       
                    
                    
       Al           
                    
        Al          
                    
                    
                    
           Al       
                    
                    
       Al           
                    
        Al          
                    
                    
           Al       
                    
                    
                    
       Al           
                    
        Al          
                    
                    
                    
                    

Positions:
   0 Al     0.000000    1.650788   15.000000
   1 Al     0.000000    0.000000   17.334567
   2 Al     1.429625    0.825394   19.669135
   3 Al     0.000000    1.650788   22.003702
   4 Al     0.000000    0.000000   24.338269
   5 Al     1.429625    0.825394   26.672837
   6 Al     0.000000    1.650788   29.007404
   7 Al     0.000000    0.000000   31.341972
   8 Al     1.429625    0.825394   33.676539
   9 Al     0.000000    1.650788   36.011106
  10 Al     0.000000    0.000000   38.345674
  11 Al     1.429625    0.825394   40.680241
  12 Al     0.000000    1.650788   43.014808
  13 Al     0.000000    0.000000   45.349376
  14 C     -0.000000   -0.000000   47.338472
  15 O      0.000000   -0.000000   48.512021

Unit cell:
           periodic     x           y           z      points  spacing
  1. axis:    yes    2.859249    0.000000    0.000000    14     0.1769
  2. axis:    yes    1.429625    2.476183    0.000000    14     0.1769
  3. axis:    no     0.000000    0.000000   60.349376   336     0.1796

  Lengths:   2.859249   2.859249  60.349376
  Angles:   90.000000  90.000000  60.000000

Effective grid spacing dv^(1/3) = 0.1865

                     log10-error:    total        iterations:
           time      wfs    density  energy       fermi  poisson
iter:   1  01:34:38  -0.76   +inf   -63.909134    34            
iter:   2  01:34:42  +0.28  -1.21  -576.204328    34            
iter:   3  01:34:46  -0.38  -0.03   -83.777253    35            
iter:   4  01:34:50  +0.31  -0.50   -53.092743    32            
iter:   5  01:34:54  +0.12  -0.84   -57.583751    34            
iter:   6  01:34:58  -0.10  -1.07   -60.350336    3             
iter:   7  01:35:02  +0.01  -1.42   -64.149897    3             
iter:   8  01:35:07  -0.74  -1.18   -64.590255    3             
iter:   9  01:35:11  -1.00  -1.08   -64.275556    3             
iter:  10  01:35:15  -1.63  -1.14   -63.394206    3             
iter:  11  01:35:19  -2.45  -1.38   -63.164939    3             
iter:  12  01:35:23  -3.07  -1.55   -63.059204    3             
iter:  13  01:35:27  -3.50  -1.66   -63.152121    3             
iter:  14  01:35:31  -3.82  -1.59   -62.940534    3             
iter:  15  01:35:35  -4.25  -2.05   -62.963252    2             
iter:  16  01:35:39  -4.10  -1.93   -63.056820    3             
iter:  17  01:35:43  -4.45  -1.64   -62.960596    3             
iter:  18  01:35:47  -4.79  -1.91   -62.933011    3             
iter:  19  01:35:52  -4.76  -2.23   -62.950799    3             
iter:  20  01:35:56  -4.83  -2.03   -62.988203    3             
iter:  21  01:36:00  -5.17  -1.79   -62.930160    3             
iter:  22  01:36:04  -4.75  -2.26   -62.936854    2             
iter:  23  01:36:08  -5.11  -2.15   -62.946323    3             
iter:  24  01:36:12  -4.92  -2.02   -62.929057    2             
iter:  25  01:36:16  -4.84  -2.27   -62.931308    2             
iter:  26  01:36:20  -4.99  -2.28   -63.012493    3             
iter:  27  01:36:24  -5.22  -1.71   -62.928990    3             
iter:  28  01:36:29  -5.16  -2.32   -62.925482    3             
iter:  29  01:36:33  -5.55  -2.43   -62.938582    2             
iter:  30  01:36:37  -5.70  -2.10   -62.924309    3             
iter:  31  01:36:41  -5.49  -2.50   -62.924666    2             
iter:  32  01:36:45  -4.94  -2.56   -63.017785    2             
iter:  33  01:36:49  -5.09  -1.73   -62.925399    2             
iter:  34  01:36:53  -5.65  -2.44   -62.923732    2             
iter:  35  01:36:57  -5.83  -2.61   -62.932220    3             
iter:  36  01:37:01  -6.01  -2.21   -62.922764    2             
iter:  37  01:37:05  -6.25  -2.88   -62.923174    2             
iter:  38  01:37:10  -5.49  -2.71   -62.934606    2             
iter:  39  01:37:14  -5.44  -2.16   -62.924384    2             
iter:  40  01:37:18  -6.10  -2.65   -62.923444    2             
iter:  41  01:37:22  -5.91  -2.71   -62.926594    2             
iter:  42  01:37:26  -6.07  -2.40   -62.923280    2             
iter:  43  01:37:30  -6.75  -2.67   -62.922620    2             
iter:  44  01:37:34  -6.83  -2.97   -62.923616    2             
iter:  45  01:37:38  -6.29  -2.81   -62.923008    2             
iter:  46  01:37:43  -6.58  -2.78   -62.923575    2             
iter:  47  01:37:47  -6.63  -2.60   -62.924122    2             
iter:  48  01:37:51  -6.28  -2.57   -62.923628    2             
iter:  49  01:37:55  -6.75  -2.68   -62.922584    2             
iter:  50  01:37:59  -6.64  -2.99   -62.922611    2             
iter:  51  01:38:03  -6.97  -2.92   -62.922570    2             
iter:  52  01:38:07  -6.85  -3.22   -62.923014    2             
iter:  53  01:38:11  -6.56  -2.90   -62.922894    2             
iter:  54  01:38:15  -6.71  -2.84   -62.924178    2             
iter:  55  01:38:20  -6.79  -2.53   -62.922570    2             
iter:  56  01:38:24  -7.57  -3.08   -62.922459    2             
iter:  57  01:38:28  -7.20  -3.60   -62.922404    2             
iter:  58  01:38:32  -7.18  -3.40   -62.922674    2             
iter:  59  01:38:36  -7.51  -2.90   -62.922626    2             
iter:  60  01:38:40  -7.00  -3.03   -62.923768    2             
iter:  61  01:38:44  -7.03  -2.68   -62.922620    2             
iter:  62  01:38:48  -7.39  -2.98   -62.922413    2             
iter:  63  01:38:52  -7.82  -3.26   -62.922448    2             
iter:  64  01:38:56  -7.71  -3.18   -62.922493    2             
iter:  65  01:39:00  -7.50  -3.44   -62.922441    2             
iter:  66  01:39:05  -7.11  -3.25   -62.922620    2             
iter:  67  01:39:09  -6.78  -2.92   -62.923112    2             
iter:  68  01:39:13  -7.16  -2.84   -62.922509    2             
iter:  69  01:39:17  -7.65  -3.38   -62.922499    2             
iter:  70  01:39:21  -7.64  -3.38   -62.922414    2             
iter:  71  01:39:25  -8.13  -3.39   -62.922431    2             
iter:  72  01:39:29  -8.51  -3.81   -62.922472    2             
iter:  73  01:39:33  -7.54  -3.56   -62.922496    2             
iter:  74  01:39:37  -7.69  -3.12   -62.922440    2             
iter:  75  01:39:41  -7.77  -3.36   -62.922480    2             
iter:  76  01:39:46  -7.88  -3.13   -62.922489    2             
iter:  77  01:39:50  -8.08  -3.59   -62.922417    2             
iter:  78  01:39:54  -8.54  -3.75   -62.922411    2             
iter:  79  01:39:58  -8.39  -3.57   -62.922462    2             
iter:  80  01:40:02  -8.12  -3.59   -62.922449    2             
iter:  81  01:40:06  -7.92  -3.38   -62.922528    2             
iter:  82  01:40:10  -7.67  -3.33   -62.922403    2             
iter:  83  01:40:14  -7.84  -3.52   -62.922443    2             
iter:  84  01:40:18  -8.54  -3.38   -62.922437    2             
iter:  85  01:40:22  -8.53  -4.00   -62.922424    2             

Converged after 85 iterations.

Dipole moment: (2.095643, 1.209920, -0.155113) |e|*Ang

Energy contributions relative to reference atoms: (reference = -95516.406125)

Kinetic:        +47.747378
Potential:      -21.197573
External:        +0.000000
XC:             -89.024193
Entropy (-ST):   -0.204201
Local:           -0.345935
--------------------------
Free energy:    -63.024524
Extrapolated:   -62.922424

Fermi level: 2.09845

Warning: Showing only first 2 kpts
 Kpt  Band  Eigenvalues  Occupancy
  0    24      3.51318    0.00000
  0    25      4.59669    0.00000
  0    26      5.59112    0.00000
  0    27      5.86808    0.00000

  1    24      3.47258    0.00000
  1    25      4.55692    0.00000
  1    26      5.55251    0.00000
  1    27      5.97564    0.00000



Forces in eV/Ang:
  0 Al   -0.00000    0.00000   -0.05714
  1 Al    0.00000    0.00000    0.08253
  2 Al    0.00000   -0.00000   -0.03024
  3 Al    0.00000    0.00000    0.01414
  4 Al    0.00000   -0.00000    0.01776
  5 Al   -0.00000    0.00000   -0.00875
  6 Al   -0.00000    0.00000    0.00364
  7 Al    0.00000    0.00000    0.00013
  8 Al   -0.00000    0.00000   -0.02423
  9 Al    0.00000    0.00000    0.02257
 10 Al    0.00000    0.00000    0.03158
 11 Al   -0.00000    0.00000   -0.00587
 12 Al    0.00000   -0.00000   -0.14007
 13 Al   -0.00000   -0.00000    0.00517
 14 C     0.00000    0.00000   -0.00306
 15 O    -0.00000    0.00000    0.07089

System changes: positions 

Initializing position-dependent things.

Density initialized from wave functions
                    
                    
                    
                    
       O            
                    
       C            
                    
       Al           
                    
        Al          
                    
                    
                    
           Al       
                    
                    
       Al           
                    
        Al          
                    
                    
           Al       
                    
                    
       Al           
                    
        Al          
                    
                    
                    
           Al       
                    
                    
       Al           
                    
        Al          
                    
                    
           Al       
                    
                    
                    
       Al           
                    
        Al          
                    
                    
                    
                    

Positions:
   0 Al     0.000000    1.650788   15.000000
   1 Al     0.000000    0.000000   17.334567
   2 Al     1.429625    0.825394   19.669135
   3 Al     0.000000    1.650788   22.003702
   4 Al     0.000000    0.000000   24.338269
   5 Al     1.429625    0.825394   26.672837
   6 Al     0.000000    1.650788   29.007404
   7 Al     0.000000    0.000000   31.341972
   8 Al     1.429625    0.825394   33.676539
   9 Al     0.000000    1.650788   36.011106
  10 Al     0.000000    0.000000   38.345674
  11 Al     1.429625    0.825394   40.680241
  12 Al     0.000000    1.650788   43.014808
  13 Al     0.000000    0.000000   45.349376
  14 C     -0.000000    0.000000   47.344888
  15 O      0.000000   -0.000000   48.518952

Unit cell:
           periodic     x           y           z      points  spacing
  1. axis:    yes    2.859249    0.000000    0.000000    14     0.1769
  2. axis:    yes    1.429625    2.476183    0.000000    14     0.1769
  3. axis:    no     0.000000    0.000000   60.349376   336     0.1796

  Lengths:   2.859249   2.859249  60.349376
  Angles:   90.000000  90.000000  60.000000

Effective grid spacing dv^(1/3) = 0.1865

                     log10-error:    total        iterations:
           time      wfs    density  energy       fermi  poisson
iter:   1  01:40:28  -0.80   +inf   -63.758738    3             
iter:   2  01:40:32  +0.35  -1.25  -513.366631    36            
iter:   3  01:40:36  -0.40  -0.02   -62.875266    36            
iter:   4  01:40:41  +0.12  -0.93   -62.884669    34            
iter:   5  01:40:45  -0.38  -1.26   -63.316705    33            
iter:   6  01:40:49  -0.88  -1.35   -63.183506    3             
iter:   7  01:40:53  -1.59  -1.51   -63.230994    3             
iter:   8  01:40:57  -2.69  -1.45   -82.777945    3             
iter:   9  01:41:01  -2.92  -0.53   -66.903185    31            
iter:  10  01:41:05  -3.09  -0.90   -63.641015    34            
iter:  11  01:41:09  -3.76  -1.36   -63.009777    3             
iter:  12  01:41:13  -4.26  -1.76   -62.953457    3             
iter:  13  01:41:17  -4.54  -1.98   -62.934842    2             
iter:  14  01:41:21  -4.68  -2.20   -62.934566    2             
iter:  15  01:41:25  -4.74  -2.18   -63.140433    3             
iter:  16  01:41:30  -4.47  -1.53   -63.062361    3             
iter:  17  01:41:34  -4.68  -1.64   -62.972965    3             
iter:  18  01:41:38  -5.07  -1.88   -62.935604    2             
iter:  19  01:41:42  -5.01  -2.20   -62.933134    3             
iter:  20  01:41:46  -5.41  -2.19   -62.926233    2             
iter:  21  01:41:50  -4.70  -2.40   -62.963345    3             
iter:  22  01:41:54  -4.91  -1.88   -62.990758    3             
iter:  23  01:41:58  -4.91  -1.79   -62.965349    3             
iter:  24  01:42:02  -4.79  -1.92   -62.937269    3             
iter:  25  01:42:06  -5.35  -2.13   -62.930896    3             
iter:  26  01:42:10  -5.62  -2.22   -62.923391    2             
iter:  27  01:42:15  -5.78  -2.70   -62.924756    2             
iter:  28  01:42:19  -5.49  -2.60   -62.951037    2             
iter:  29  01:42:23  -5.36  -1.95   -62.936530    3             
iter:  30  01:42:27  -5.67  -2.13   -62.927016    3             
iter:  31  01:42:31  -5.58  -2.44   -62.927764    2             
iter:  32  01:42:35  -5.83  -2.36   -62.926477    3             
iter:  33  01:42:39  -5.76  -2.37   -62.925770    2             
iter:  34  01:42:43  -5.89  -2.44   -62.931182    1             
iter:  35  01:42:47  -5.77  -2.24   -62.927665    3             
iter:  36  01:42:51  -5.52  -2.36   -62.926975    3             
iter:  37  01:42:55  -6.00  -2.37   -62.927925    2             
iter:  38  01:43:00  -5.91  -2.32   -62.924349    2             
iter:  39  01:43:04  -6.08  -2.63   -62.923019    2             
iter:  40  01:43:08  -6.11  -2.96   -62.926907    2             
iter:  41  01:43:12  -6.17  -2.35   -62.924374    2             
iter:  42  01:43:16  -6.31  -2.58   -62.923292    2             
iter:  43  01:43:20  -6.24  -2.89   -62.924238    2             
iter:  44  01:43:24  -6.22  -2.66   -62.926531    3             
iter:  45  01:43:28  -6.55  -2.38   -62.923181    2             
iter:  46  01:43:32  -6.65  -2.81   -62.924017    2             
iter:  47  01:43:36  -6.35  -2.68   -62.924825    2             
iter:  48  01:43:41  -6.40  -2.49   -62.923281    2             
iter:  49  01:43:45  -6.75  -2.78   -62.923964    2             
iter:  50  01:43:49  -6.10  -2.62   -62.924978    2             
iter:  51  01:43:53  -6.16  -2.60   -62.923013    2             
iter:  52  01:43:57  -6.50  -2.91   -62.923713    2             
iter:  53  01:44:01  -6.74  -2.64   -62.923544    2             
iter:  54  01:44:05  -6.84  -2.77   -62.923010    2             
iter:  55  01:44:09  -6.95  -2.95   -62.923059    2             
iter:  56  01:44:13  -6.58  -2.96   -62.924140    2             
iter:  57  01:44:17  -6.81  -2.60   -62.922835    2             
iter:  58  01:44:21  -7.19  -3.24   -62.923129    2             
iter:  59  01:44:25  -6.91  -2.94   -62.923826    2             
iter:  60  01:44:30  -7.07  -2.62   -62.922829    2             
iter:  61  01:44:34  -7.30  -3.18   -62.923007    2             
iter:  62  01:44:38  -6.73  -2.94   -62.923387    2             
iter:  63  01:44:42  -6.67  -2.91   -62.923017    2             
iter:  64  01:44:46  -6.99  -2.90   -62.923011    2             
iter:  65  01:44:50  -6.80  -2.91   -62.923585    2             
iter:  66  01:44:54  -6.91  -2.79   -62.923006    2             
iter:  67  01:44:58  -7.34  -2.95   -62.922877    2             
iter:  68  01:45:02  -6.88  -3.19   -62.923032    2             
iter:  69  01:45:06  -6.82  -2.94   -62.922915    2             
iter:  70  01:45:11  -7.10  -3.39   -62.922918    2             
iter:  71  01:45:15  -7.15  -3.15   -62.923635    2             
iter:  72  01:45:19  -7.17  -2.67   -62.922901    2             
iter:  73  01:45:23  -7.51  -3.29   -62.922842    2             
iter:  74  01:45:27  -7.49  -3.27   -62.922963    2             
iter:  75  01:45:31  -7.35  -3.12   -62.922855    2             
iter:  76  01:45:35  -7.65  -3.13   -62.922835    2             
iter:  77  01:45:39  -6.99  -3.29   -62.923853    2             
iter:  78  01:45:43  -6.90  -2.73   -62.923029    2             
iter:  79  01:45:47  -7.55  -2.93   -62.922858    2             
iter:  80  01:45:51  -7.45  -3.23   -62.922840    2             
iter:  81  01:45:55  -7.33  -3.30   -62.922885    2             
iter:  82  01:46:00  -7.44  -3.28   -62.922856    2             
iter:  83  01:46:04  -7.27  -3.21   -62.923144    2             
iter:  84  01:46:08  -6.81  -2.85   -62.923263    2             
iter:  85  01:46:12  -7.33  -3.01   -62.922879    2             
iter:  86  01:46:16  -7.65  -3.40   -62.922852    2             
iter:  87  01:46:20  -7.86  -3.33   -62.922842    2             
iter:  88  01:46:24  -8.37  -3.47   -62.922842    2             
iter:  89  01:46:28  -8.05  -3.83   -62.922953    2             
iter:  90  01:46:32  -7.59  -3.27   -62.922884    2             
iter:  91  01:46:36  -7.74  -3.10   -62.922863    2             
iter:  92  01:46:40  -8.00  -3.31   -62.922856    2             
iter:  93  01:46:45  -7.81  -3.67   -62.922896    2             
iter:  94  01:46:49  -8.02  -3.19   -62.922825    2             
iter:  95  01:46:53  -8.22  -3.44   -62.922836    2             
iter:  96  01:46:57  -7.86  -3.35   -62.922944    2             
iter:  97  01:47:01  -7.86  -3.52   -62.922878    2             
iter:  98  01:47:05  -7.85  -3.31   -62.922842    2             
iter:  99  01:47:09  -7.87  -3.28   -62.922902    2             
iter: 100  01:47:13  -7.96  -3.35   -62.922843    2             
iter: 101  01:47:17  -8.54  -3.71   -62.922844    2             
iter: 102  01:47:22  -8.05  -3.63   -62.922822    2             
iter: 103  01:47:26  -7.68  -3.53   -62.922934    2             
iter: 104  01:47:30  -7.80  -3.26   -62.922941    2             
iter: 105  01:47:34  -7.63  -3.47   -62.922866    2             
iter: 106  01:47:38  -7.98  -3.29   -62.922850    2             
iter: 107  01:47:42  -8.72  -3.67   -62.922847    2             
iter: 108  01:47:46  -9.06  -3.98   -62.922856    2             
iter: 109  01:47:50  -8.37  -4.11   -62.922862    2             

Converged after 109 iterations.

Dipole moment: (2.095739, 1.209976, -0.155572) |e|*Ang

Energy contributions relative to reference atoms: (reference = -95516.406125)

Kinetic:        +47.535409
Potential:      -21.037349
External:        +0.000000
XC:             -88.972803
Entropy (-ST):   -0.204247
Local:           -0.345995
--------------------------
Free energy:    -63.024985
Extrapolated:   -62.922862

Fermi level: 2.09932

Warning: Showing only first 2 kpts
 Kpt  Band  Eigenvalues  Occupancy
  0    24      3.51052    0.00000
  0    25      4.59380    0.00000
  0    26      5.58842    0.00000
  0    27      5.87249    0.00000

  1    24      3.46989    0.00000
  1    25      4.55398    0.00000
  1    26      5.54960    0.00000
  1    27      5.98004    0.00000



Forces in eV/Ang:
  0 Al    0.00000    0.00000   -0.05529
  1 Al    0.00000    0.00000    0.08375
  2 Al   -0.00000    0.00000   -0.02952
  3 Al    0.00000    0.00000    0.01539
  4 Al    0.00000   -0.00000    0.01870
  5 Al    0.00000    0.00000   -0.00792
  6 Al    0.00000    0.00000    0.00480
  7 Al   -0.00000   -0.00000    0.00178
  8 Al   -0.00000    0.00000   -0.02283
  9 Al    0.00000    0.00000    0.02306
 10 Al   -0.00000    0.00000    0.03157
 11 Al   -0.00000    0.00000   -0.00664
 12 Al    0.00000   -0.00000   -0.14338
 13 Al    0.00000    0.00000    0.06125
 14 C     0.00000    0.00000    0.00227
 15 O     0.00000    0.00000    0.01529

System changes: positions 

Initializing position-dependent things.

Density initialized from wave functions
                    
                    
                    
                    
       O            
                    
       C            
                    
       Al           
                    
        Al          
                    
                    
                    
           Al       
                    
                    
       Al           
                    
        Al          
                    
                    
           Al       
                    
                    
       Al           
                    
        Al          
                    
                    
                    
           Al       
                    
                    
       Al           
                    
        Al          
                    
                    
           Al       
                    
                    
                    
       Al           
                    
        Al          
                    
                    
                    
                    

Positions:
   0 Al     0.000000    1.650788   15.000000
   1 Al     0.000000    0.000000   17.334567
   2 Al     1.429625    0.825394   19.669135
   3 Al     0.000000    1.650788   22.003702
   4 Al     0.000000    0.000000   24.338269
   5 Al     1.429625    0.825394   26.672837
   6 Al     0.000000    1.650788   29.007404
   7 Al     0.000000    0.000000   31.341972
   8 Al     1.429625    0.825394   33.676539
   9 Al     0.000000    1.650788   36.011106
  10 Al     0.000000    0.000000   38.345674
  11 Al     1.429625    0.825394   40.680241
  12 Al     0.000000    1.650788   43.014808
  13 Al     0.000000    0.000000   45.349376
  14 C     -0.000000    0.000000   47.347136
  15 O      0.000000   -0.000000   48.521337

Unit cell:
           periodic     x           y           z      points  spacing
  1. axis:    yes    2.859249    0.000000    0.000000    14     0.1769
  2. axis:    yes    1.429625    2.476183    0.000000    14     0.1769
  3. axis:    no     0.000000    0.000000   60.349376   336     0.1796

  Lengths:   2.859249   2.859249  60.349376
  Angles:   90.000000  90.000000  60.000000

Effective grid spacing dv^(1/3) = 0.1865

                     log10-error:    total        iterations:
           time      wfs    density  energy       fermi  poisson
iter:   1  01:47:56  -1.74   +inf   -63.316457    3             
iter:   2  01:48:00  -0.50  -1.41  -186.859840    32            
iter:   3  01:48:04  -1.24  -0.16   -92.540774    34            
iter:   4  01:48:09  -1.99  -0.46   -64.264575    34            
iter:   5  01:48:13  -3.10  -1.21   -63.879107    3             
iter:   6  01:48:17  -3.92  -1.26   -64.110296    3             
iter:   7  01:48:21  -3.97  -1.23   -64.415683    3             
iter:   8  01:48:25  -1.98  -1.18   -65.478763    32            
iter:   9  01:48:29  -2.75  -1.06   -63.247019    35            
iter:  10  01:48:33  -3.35  -1.46   -67.835423    31            
iter:  11  01:48:37  -3.26  -0.89   -63.484410    3             
iter:  12  01:48:41  -4.04  -1.38   -63.457084    3             
iter:  13  01:48:45  -4.49  -1.38   -63.439069    3             
iter:  14  01:48:49  -2.03  -1.38   -93.181295    35            
iter:  15  01:48:53  -2.43  -0.50   -63.821459    33            
iter:  16  01:48:58  -3.11  -1.29   -63.136475    34            
iter:  17  01:49:02  -3.87  -1.59   -63.339333    3             
iter:  18  01:49:06  -3.94  -1.40   -63.117511    3             
iter:  19  01:49:10  -4.49  -1.57   -62.948970    3             
iter:  20  01:49:14  -4.56  -2.02   -62.940473    2             
iter:  21  01:49:18  -5.22  -2.12   -62.926781    3             
iter:  22  01:49:22  -5.07  -2.41   -62.924729    2             
iter:  23  01:49:26  -4.86  -2.63   -63.050599    3             
iter:  24  01:49:30  -5.11  -1.66   -62.934118    2             
iter:  25  01:49:34  -5.28  -2.20   -62.928941    2             
iter:  26  01:49:38  -5.48  -2.34   -62.929133    3             
iter:  27  01:49:43  -6.15  -2.33   -62.923262    2             
iter:  28  01:49:47  -6.18  -2.83   -62.923088    2             
iter:  29  01:49:51  -6.18  -2.87   -62.924453    2             
iter:  30  01:49:55  -5.96  -2.65   -62.925839    2             
iter:  31  01:49:59  -5.99  -2.41   -62.925546    2             
iter:  32  01:50:03  -5.45  -2.46   -62.942153    3             
iter:  33  01:50:07  -5.57  -2.10   -62.923535    3             
iter:  34  01:50:11  -6.33  -2.78   -62.922953    2             
iter:  35  01:50:15  -6.46  -3.03   -62.922847    2             
iter:  36  01:50:20  -6.74  -3.05   -62.922980    2             
iter:  37  01:50:24  -6.81  -3.10   -62.923694    2             
iter:  38  01:50:28  -6.16  -2.83   -62.925395    2             
iter:  39  01:50:32  -5.97  -2.45   -62.929927    2             
iter:  40  01:50:36  -6.18  -2.30   -62.923017    3             
iter:  41  01:50:40  -6.75  -3.00   -62.922876    2             
iter:  42  01:50:44  -7.14  -3.13   -62.922815    2             
iter:  43  01:50:48  -6.76  -3.20   -62.922857    2             
iter:  44  01:50:52  -6.61  -3.14   -62.923740    2             
iter:  45  01:50:56  -6.29  -2.81   -62.923868    2             
iter:  46  01:51:01  -6.74  -2.68   -62.923244    2             
iter:  47  01:51:05  -7.12  -2.82   -62.922854    2             
iter:  48  01:51:09  -7.45  -3.36   -62.922820    2             
iter:  49  01:51:13  -7.90  -3.42   -62.922835    2             
iter:  50  01:51:17  -7.18  -3.56   -62.922890    2             
iter:  51  01:51:21  -7.38  -3.05   -62.923164    2             
iter:  52  01:51:25  -7.30  -2.99   -62.923090    2             
iter:  53  01:51:29  -7.21  -3.05   -62.922919    2             
iter:  54  01:51:33  -7.55  -3.06   -62.922841    2             
iter:  55  01:51:37  -7.60  -3.48   -62.922824    2             
iter:  56  01:51:42  -8.04  -3.51   -62.922890    2             
iter:  57  01:51:46  -7.44  -3.69   -62.922897    2             
iter:  58  01:51:50  -7.74  -3.14   -62.922894    2             
iter:  59  01:51:54  -7.89  -3.19   -62.922933    2             
iter:  60  01:51:58  -7.57  -3.38   -62.922854    2             
iter:  61  01:52:02  -8.15  -3.43   -62.922862    2             
iter:  62  01:52:06  -7.82  -3.49   -62.922840    2             
iter:  63  01:52:10  -8.16  -3.48   -62.922902    2             
iter:  64  01:52:14  -8.07  -3.53   -62.922905    2             
iter:  65  01:52:18  -7.89  -3.42   -62.922866    2             
iter:  66  01:52:23  -8.15  -3.28   -62.922884    2             
iter:  67  01:52:27  -8.27  -3.70   -62.922866    2             
iter:  68  01:52:31  -8.41  -3.71   -62.922880    2             
iter:  69  01:52:35  -8.21  -3.74   -62.922867    2             
iter:  70  01:52:39  -8.24  -3.39   -62.922875    2             
iter:  71  01:52:43  -8.21  -3.48   -62.922915    2             
iter:  72  01:52:47  -7.85  -3.65   -62.922868    2             
iter:  73  01:52:51  -8.34  -3.63   -62.922878    2             
iter:  74  01:52:55  -8.12  -3.53   -62.922879    2             
iter:  75  01:52:59  -8.28  -3.84   -62.922926    2             
iter:  76  01:53:04  -8.09  -3.60   -62.922907    2             
iter:  77  01:53:08  -8.28  -3.50   -62.922868    2             
iter:  78  01:53:12  -8.85  -3.47   -62.922891    2             
iter:  79  01:53:16  -8.86  -3.87   -62.922889    2             
iter:  80  01:53:20  -8.53  -3.87   -62.922882    2             
iter:  81  01:53:24  -8.56  -3.69   -62.922879    2             
iter:  82  01:53:28  -8.46  -3.63   -62.922915    2             
iter:  83  01:53:32  -7.99  -3.58   -62.922945    2             
iter:  84  01:53:36  -7.96  -3.67   -62.922888    2             
iter:  85  01:53:40  -8.71  -3.90   -62.922889    2             
iter:  86  01:53:45  -9.06  -3.64   -62.922900    2             
iter:  87  01:53:49  -9.08  -4.17   -62.922900    1             

Converged after 87 iterations.

Dipole moment: (2.095742, 1.209977, -0.157306) |e|*Ang

Energy contributions relative to reference atoms: (reference = -95516.406125)

Kinetic:        +47.452292
Potential:      -20.970189
External:        +0.000000
XC:             -88.956476
Entropy (-ST):   -0.204249
Local:           -0.346404
--------------------------
Free energy:    -63.025025
Extrapolated:   -62.922900

Fermi level: 2.10304

Warning: Showing only first 2 kpts
 Kpt  Band  Eigenvalues  Occupancy
  0    24      3.51348    0.00000
  0    25      4.59805    0.00000
  0    26      5.60128    0.00000
  0    27      5.88023    0.00000

  1    24      3.47284    0.00000
  1    25      4.55823    0.00000
  1    26      5.56266    0.00000
  1    27      5.98764    0.00000


