
  ___ ___ ___ _ _ _  
 |   |   |_  | | | | 
 | | | | | . | | | | 
 |__ |  _|___|_____|  1.3.0
 |___|_|             

User:   analbin@hebbe11-5
Date:   Sat Feb 17 22:57:09 2018
Arch:   x86_64
Pid:    7113
Python: 2.7.14
gpaw:   /apps/Hebbe/software/MPI/intel/2017.4.196-GCC-6.4.0-2.28/impi/2017.3.196/GPAW/1.3.0-Python-2.7.14/lib/python2.7/site-packages/gpaw
_gpaw:  /apps/Hebbe/software/MPI/intel/2017.4.196-GCC-6.4.0-2.28/impi/2017.3.196/GPAW/1.3.0-Python-2.7.14/bin/
       gpaw-python
ase:    /apps/Hebbe/software/MPI/intel/2017.4.196-GCC-6.4.0-2.28/impi/2017.3.196/ASE/3.15.0-Python-2.7.14/lib/python2.7/site-packages/ase-3.15.0-py2.7.egg/ase (version 3.15.0)
numpy:  /apps/Hebbe/software/MPI/intel/2017.4.196-GCC-6.4.0-2.28/impi/2017.3.196/Python/2.7.14/lib/python2.7/site-packages/numpy-1.13.1-py2.7-linux-x86_64.egg/numpy (version 1.13.1)
scipy:  /apps/Hebbe/software/MPI/intel/2017.4.196-GCC-6.4.0-2.28/impi/2017.3.196/Python/2.7.14/lib/python2.7/site-packages/scipy-0.19.1-py2.7-linux-x86_64.egg/scipy (version 0.19.1)
units:  Angstrom and eV
cores:  20

Input parameters:
  h: 0.18
  kpts: [20 20  1]
  mixer: {backend: pulay,
          beta: 0.1,
          method: separate,
          nmaxold: 5,
          weight: 50.0}
  mode: {ecut: 350.0,
         name: pw}
  xc: PBE

System changes: positions, numbers, cell, pbc, initial_charges, initial_magmoms 

Initialize ...

Al-setup:
  name: Aluminium
  id: 0292cae29f5d6237e50f6abdd43a7bdd
  Z: 13
  valence: 3
  core: 10
  charge: 0.0
  file: /c3se/apps/Glenn/gpaw/gpaw-setups-0.9.11271/Al.PBE.gz
  cutoffs: 1.08(comp), 1.91(filt), 2.36(core), lmax=2
  valence states:
                energy  radius
    3s(2.00)    -7.753   1.085
    3p(1.00)    -2.712   1.085
    *s          19.459   1.085
    *p          24.499   1.085
    *d           0.000   1.085

  Using partial waves for Al as LCAO basis

Reference energy: -46223.962854

Spin-paired calculation

Occupation numbers:
  Fermi-Dirac: width=0.1000 eV

Convergence criteria:
  Maximum total energy change: 0.0005 eV / electron
  Maximum integral of absolute density change: 0.0001 electrons
  Maximum integral of absolute eigenstate change: 4e-08 eV^2
  Maximum number of iterations: 333

Symmetries present (total): 6

  ( 1  0  0)  ( 1 -1  0)  ( 0  1  0)  ( 0 -1  0)  (-1  1  0)  (-1  0  0)
  ( 0  1  0)  ( 0 -1  0)  ( 1  0  0)  ( 1 -1  0)  (-1  0  0)  (-1  1  0)
  ( 0  0  1)  ( 0  0  1)  ( 0  0  1)  ( 0  0  1)  ( 0  0  1)  ( 0  0  1)
Note: your k-points are not as symmetric as your crystal!

400 k-points: 20 x 20 x 1 Monkhorst-Pack grid
110 k-points in the irreducible part of the Brillouin zone
       k-points in crystal coordinates                weights
   0:     0.02500000   -0.02500000    0.00000000          2/400
   1:     0.02500000    0.02500000    0.00000000          2/400
   2:     0.07500000   -0.07500000    0.00000000          2/400
   3:     0.07500000   -0.02500000    0.00000000          4/400
   4:     0.07500000    0.02500000    0.00000000          4/400
   5:     0.07500000    0.07500000    0.00000000          2/400
   6:     0.12500000   -0.12500000    0.00000000          2/400
   7:     0.12500000   -0.07500000    0.00000000          4/400
   8:     0.12500000   -0.02500000    0.00000000          4/400
   9:     0.12500000    0.02500000    0.00000000          4/400
          ...
 109:     0.47500000    0.47500000    0.00000000          2/400

Wave functions: Plane wave expansion
  Cutoff energy: 350.000 eV
  Number of coefficients (min, max): 3006, 3133
  Using FFTW library
  Eigensolver: None  MatrixOperator buffer_size: default value or 
                              see value of nblock in input file
Diagonalizer layout: Serial LAPACKOrthonormalizer layout: Serial LAPACK 

Davidson(niter=1, smin=None, normalize=True) 

Densities:
  Coarse grid: 14*14*162 grid
  Fine grid: 28*28*324 grid
  Total Charge: 0.000000 

Density mixing:
  Method: separate
  Backend: pulay
  Linear mixing parameter: 0.1
  Mixing with 5 old densities
  Damping of long wave oscillations: 50 

Hamiltonian:
  XC and Coulomb potentials evaluated on a 28*28*324 grid
  Using the PBE Exchange-Correlation functional
 

Memory estimate:
  Process memory now: 148.85 MiB
  Calculator: 32.18 MiB
    Density: 13.41 MiB
      Arrays: 6.30 MiB
      Localized functions: 4.69 MiB
      Mixer: 2.42 MiB
    Hamiltonian: 4.21 MiB
      Arrays: 4.12 MiB
      XC: 0.00 MiB
      Poisson: 0.00 MiB
      vbar: 0.10 MiB
    Wavefunctions: 14.55 MiB
      Arrays psit_nG: 7.36 MiB
      Eigensolver: 0.36 MiB
      Projections: 0.21 MiB
      Projectors: 3.65 MiB
      Overlap op: 1.36 MiB
      PW-descriptor: 1.60 MiB

Total number of cores used: 20
Parallelization over k-points: 10
Parallelization over states: 2

Number of atoms: 7
Number of atomic orbitals: 28
Number of bands in calculation: 28
Bands to converge: occupied states only
Number of valence electrons: 21

... initialized

Initializing position-dependent things.

Density initialized from atomic densities
Creating initial wave functions:
  28 bands from LCAO basis set

                    
                    
                    
                    
       Al           
                    
        Al          
                    
                    
                    
           Al       
                    
                    
       Al           
                    
        Al          
                    
                    
           Al       
                    
                    
       Al           
                    
                    
                    
                    

Positions:
   0 Al     0.000000    0.000000    7.500000
   1 Al     1.429625    0.825394    9.834567
   2 Al     0.000000    1.650788   12.169135
   3 Al     0.000000    0.000000   14.503702
   4 Al     1.429625    0.825394   16.838269
   5 Al     0.000000    1.650788   19.172837
   6 Al     0.000000    0.000000   21.507404

Unit cell:
           periodic     x           y           z      points  spacing
  1. axis:    yes    2.859249    0.000000    0.000000    14     0.1769
  2. axis:    yes    1.429625    2.476183    0.000000    14     0.1769
  3. axis:    no     0.000000    0.000000   29.007404   162     0.1791

  Lengths:   2.859249   2.859249  29.007404
  Angles:   90.000000  90.000000  60.000000

Effective grid spacing dv^(1/3) = 0.1863

                     log10-error:    total        iterations:
           time      wfs    density  energy       fermi  poisson
iter:   1  22:57:12  +1.59   +inf   -25.365251    2             
iter:   2  22:57:13  -0.16   +inf   -25.619482    2             
iter:   3  22:57:14  -1.09   +inf   -25.650854    2             
iter:   4  22:57:16  -1.59  -0.87   -25.886970    33            
iter:   5  22:57:17  -2.09  -0.91   -25.654128    31            
iter:   6  22:57:19  -1.96  -0.94   -25.433783    32            
iter:   7  22:57:20  -2.07  -1.24   -25.458665    3             
iter:   8  22:57:22  -2.39  -1.58   -25.427341    3             
iter:   9  22:57:24  -2.90  -2.11   -25.426065    2             
iter:  10  22:57:25  -3.11  -2.25   -25.425053    2             
iter:  11  22:57:27  -3.52  -2.69   -25.425143    2             
iter:  12  22:57:28  -3.79  -2.75   -25.425270    2             
iter:  13  22:57:30  -4.01  -2.71   -25.425176    2             
iter:  14  22:57:31  -4.31  -3.15   -25.425194    2             
iter:  15  22:57:33  -4.59  -3.19   -25.425385    2             
iter:  16  22:57:34  -4.87  -2.80   -25.425199    2             
iter:  17  22:57:36  -5.15  -3.58   -25.425198    2             
iter:  18  22:57:38  -5.42  -3.68   -25.425198    2             
iter:  19  22:57:39  -5.66  -3.88   -25.425198    2             
iter:  20  22:57:41  -5.84  -3.91   -25.425203    2             
iter:  21  22:57:42  -6.10  -3.72   -25.425211    2             
iter:  22  22:57:44  -6.34  -3.42   -25.425199    2             
iter:  23  22:57:45  -6.61  -3.94   -25.425200    2             
iter:  24  22:57:47  -6.77  -3.98   -25.425200    2             
iter:  25  22:57:49  -7.06  -4.09   -25.425200    2             
iter:  26  22:57:50  -7.29  -4.23   -25.425200    1             
iter:  27  22:57:52  -7.31  -4.29   -25.425201    2             
iter:  28  22:57:53  -7.67  -4.00   -25.425200    2             

Converged after 28 iterations.

Dipole moment: (0.000000, 0.000000, 0.000000) |e|*Ang

Energy contributions relative to reference atoms: (reference = -46223.962854)

Kinetic:        +22.402890
Potential:      -10.628504
External:        +0.000000
XC:             -37.110010
Entropy (-ST):   -0.098281
Local:           -0.040434
--------------------------
Free energy:    -25.474340
Extrapolated:   -25.425200

Fermi level: 2.29788

Warning: Showing only first 2 kpts
 Kpt  Band  Eigenvalues  Occupancy
  0     8      0.33004    0.01000
  0     9      2.18252    0.00760
  0    10      3.98249    0.00000
  0    11      5.43432    0.00000

  1     8      0.30179    0.01000
  1     9      2.15468    0.00807
  1    10      3.95500    0.00000
  1    11      5.40622    0.00000


Timing:                              incl.     excl.
-----------------------------------------------------------
Hamiltonian:                         0.244     0.001   0.0% |
 Atomic:                             0.059     0.059   0.1% |
  XC Correction:                     0.000     0.000   0.0% |
 Calculate atomic Hamiltonians:      0.027     0.027   0.1% |
 Communicate:                        0.000     0.000   0.0% |
 Initialize Hamiltonian:             0.000     0.000   0.0% |
 Poisson:                            0.001     0.001   0.0% |
 XC 3D grid:                         0.156     0.156   0.4% |
LCAO initialization:                 1.164     0.020   0.0% |
 LCAO eigensolver:                   0.283     0.000   0.0% |
  Calculate projections:             0.000     0.000   0.0% |
  DenseAtomicCorrection:             0.003     0.003   0.0% |
  Distribute overlap matrix:         0.000     0.000   0.0% |
  Orbital Layouts:                   0.003     0.003   0.0% |
  Potential matrix:                  0.270     0.270   0.6% |
  Sum over cells:                    0.006     0.006   0.0% |
 LCAO to grid:                       0.418     0.418   0.9% |
 Set positions (LCAO WFS):           0.442     0.000   0.0% |
  Basic WFS set positions:           0.001     0.001   0.0% |
  Basis functions set positions:     0.000     0.000   0.0% |
  TCI: Calculate S, T, P:            0.441     0.441   1.0% |
PWDescriptor:                        0.016     0.016   0.0% |
SCF-cycle:                          42.245     0.811   1.8% ||
 Davidson:                          21.193    13.404  30.1% |-----------|
  calc. matrices:                    6.872     6.872  15.4% |-----|
  diagonalize:                       0.291     0.291   0.7% |
  rotate_psi:                        0.626     0.626   1.4% ||
 Density:                            7.792     0.001   0.0% |
  Atomic density matrices:           0.067     0.067   0.2% |
  Mix:                               2.551     2.551   5.7% |-|
  Multipole moments:                 0.006     0.006   0.0% |
  Pseudo density:                    5.168     4.853  10.9% |---|
   Symmetrize density:               0.315     0.315   0.7% |
 Hamiltonian:                        5.978     0.029   0.1% |
  Atomic:                            1.463     1.463   3.3% ||
   XC Correction:                    0.000     0.000   0.0% |
  Calculate atomic Hamiltonians:     0.280     0.280   0.6% |
  Communicate:                       0.003     0.003   0.0% |
  Poisson:                           0.031     0.031   0.1% |
  XC 3D grid:                        4.172     4.172   9.4% |---|
 Orthonormalize:                     0.112     0.001   0.0% |
  Band Layouts:                      0.001     0.000   0.0% |
   Inverse Cholesky:                 0.001     0.001   0.0% |
  calc_s_matrix:                     0.033     0.033   0.1% |
  projections:                       0.068     0.068   0.2% |
  rotate_psi:                        0.010     0.010   0.0% |
 Subspace diag:                      6.358     0.014   0.0% |
  Band Layouts:                      0.070     0.005   0.0% |
   Diagonalize:                      0.061     0.061   0.1% |
   Distribute results:               0.004     0.004   0.0% |
  calc_h_matrix:                     5.983     5.983  13.4% |----|
  rotate_psi:                        0.291     0.291   0.7% |
Set symmetry:                        0.122     0.122   0.3% |
Other:                               0.772     0.772   1.7% ||
-----------------------------------------------------------
Total:                                        44.562 100.0%

Memory usage: 152.18 MiB
Date: Sat Feb 17 22:57:53 2018
